
     Program PWSCF v.7.3.1 starts on  1Jun2025 at 13:38:19 
        Git branch: HEAD
        Last git commit: 7fd60c9bc9fe7a7d1fe6f1049f4afba0eab9aeef-dirty
        Last git commit date: Thu Feb 29 10:18:05 2024 +0000
        Last git commit subject: Merge branch 'master_qe_7.3.1' into 'master'

     This program is part of the open-source Quantum ESPRESSO suite
     for quantum simulation of materials; please cite
         "P. Giannozzi et al., J. Phys.:Condens. Matter 21 395502 (2009);
         "P. Giannozzi et al., J. Phys.:Condens. Matter 29 465901 (2017);
         "P. Giannozzi et al., J. Chem. Phys. 152 154105 (2020);
          URL http://www.quantum-espresso.org", 
     in publications or presentations arising from this work. More details at
     http://www.quantum-espresso.org/quote

     Parallel version (MPI & OpenMP), running on      16 processor cores
     Number of MPI processes:                16
     Threads/MPI process:                     1

     MPI processes distributed on     4 nodes
     221638 MiB available memory on the printing compute node when the environment starts
 
     Waiting for input...
     Reading input from standard input
Warning: card &CELL ignored
Warning: card / ignored
Warning: card &FCP ignored
Warning: card / ignored
Warning: card &RISM ignored
Warning: card / ignored

     Current dimensions of program PWSCF are:
     Max number of different atomic species (ntypx) = 10
     Max number of k-points (npk) =  40000
     Max angular momentum in pseudopotentials (lmaxx) =  4

     IMPORTANT: XC functional enforced from input :
     Exchange-correlation= VDW-DF-C09
                           (   1   4  16   0   1   0   0)
     Any further DFT definition will be discarded
     Please, verify this is what you really want

 
     K-points division:     npool     =       2
     R & G space division:  proc/nbgrp/npool/nimage =       8
     Subspace diagonalization in iterative solution of the eigenvalue problem:
     a serial algorithm will be used

 
     Parallelization info
     --------------------
     sticks:   dense  smooth     PW     G-vecs:    dense   smooth      PW
     Min        1141    1141    301               163339   163339   22085
     Max        1142    1142    302               163346   163346   22088
     Sum        9133    9133   2411              1306743  1306743  176689
 
     Using Slab Decomposition
 


     bravais-lattice index     =            0
     lattice parameter (alat)  =      18.8078  a.u.
     unit-cell volume          =   20812.0390 (a.u.)^3
     number of atoms/cell      =           72
     number of atomic types    =            1
     number of electrons       =       360.00
     number of Kohn-Sham states=          216
     kinetic-energy cutoff     =      60.0000  Ry
     charge density cutoff     =     240.0000  Ry
     scf convergence threshold =      1.0E-08
     mixing beta               =       0.7000
     number of iterations used =            8  plain     mixing
     Exchange-correlation= VDW-DF-C09
                           (   1   4  16   0   1   0   0)

     GPU acceleration is ACTIVE.  1 visible GPUs per MPI rank

     Message from routine print_cuda_info:
     High GPU oversubscription detected. Are you sure this is what you want?

     celldm(1)=  18.807768  celldm(2)=   0.000000  celldm(3)=   0.000000
     celldm(4)=   0.000000  celldm(5)=   0.000000  celldm(6)=   0.000000

     crystal axes: (cart. coord. in units of alat)
               a(1) = (   1.000000   0.000000   0.000000 )  
               a(2) = (   0.000000   1.353672   0.000000 )  
               a(3) = (   0.000000   0.000000   2.310944 )  

     reciprocal axes: (cart. coord. in units 2 pi/alat)
               b(1) = (  1.000000  0.000000  0.000000 )  
               b(2) = (  0.000000  0.738731  0.000000 )  
               b(3) = (  0.000000  0.000000  0.432724 )  


     PseudoPot. # 1 for P  read from file:
     ../../../pseudo_qe/P.upf
     MD5 check sum: c802fd0635a0ed1615482a1b584dae5b
     Pseudo is Norm-conserving + core correction, Zval =  5.0
     Generated using ONCVPSP code by D. R. Hamann
     Using radial grid of 1298 points,  6 beta functions with: 
                l(1) =   0
                l(2) =   0
                l(3) =   1
                l(4) =   1
                l(5) =   2
                l(6) =   2

     atomic species   valence    mass     pseudopotential
     P                 5.00    30.97376     P ( 1.00)

     No symmetry found



   Cartesian axes

     site n.     atom                  positions (alat units)
         1        P      tau(   1) = (   0.9620468   1.3464871   0.6276716  )
         2        P      tau(   2) = (   0.0090572   0.4584805   0.6226889  )
         3        P      tau(   3) = (   0.0046620   0.9084393   0.6341970  )
         4        P      tau(   4) = (   0.3235052   0.0046019   0.6320491  )
         5        P      tau(   5) = (   0.3146103   0.4575925   0.6229821  )
         6        P      tau(   6) = (   0.3146098   0.8957228   0.6275471  )
         7        P      tau(   7) = (   0.6341649   1.3535796   0.6401994  )
         8        P      tau(   8) = (   0.6504037   0.4444221   0.6267617  )
         9        P      tau(   9) = (   0.6450772   0.9115791   0.6248593  )
        10        P      tau(  10) = (   0.0041813   0.0866480   0.8437850  )
        11        P      tau(  11) = (   0.9549340   0.5329134   0.8537562  )
        12        P      tau(  12) = (   0.0094429   0.9796824   0.8388135  )
        13        P      tau(  13) = (   0.3282031   0.0803719   0.8474561  )
        14        P      tau(  14) = (   0.3157421   0.5327985   0.8492543  )
        15        P      tau(  15) = (   0.3151289   0.9930667   0.8387248  )
        16        P      tau(  16) = (   0.6366833   0.0869345   0.8485830  )
        17        P      tau(  17) = (   0.6391115   0.5440926   0.8413400  )
        18        P      tau(  18) = (   0.6435428   0.9878944   0.8466557  )
        19        P      tau(  19) = (   0.1593937   0.2184263   0.8466803  )
        20        P      tau(  20) = (   0.1565660   0.6824970   0.8447159  )
        21        P      tau(  21) = (   0.1630090   1.1355936   0.8357638  )
        22        P      tau(  22) = (   0.4750396   0.2273020   0.8507349  )
        23        P      tau(  23) = (   0.4781071   0.6836570   0.8403955  )
        24        P      tau(  24) = (   0.4795985   1.1302284   0.8376975  )
        25        P      tau(  25) = (   0.8029239   0.2265274   0.8347688  )
        26        P      tau(  26) = (   0.8095373   0.6767558   0.8458235  )
        27        P      tau(  27) = (   0.7977715   1.1208163   0.8475651  )
        28        P      tau(  28) = (   0.1610474   0.3023614   0.6222810  )
        29        P      tau(  29) = (   0.1626184   0.7529661   0.6322383  )
        30        P      tau(  30) = (   0.1516472   1.2172645   0.6264991  )
        31        P      tau(  31) = (   0.4844451   0.3065103   0.6349125  )
        32        P      tau(  32) = (   0.4756631   0.7625543   0.6254516  )
        33        P      tau(  33) = (   0.4735436   1.2227135   0.6358322  )
        34        P      tau(  34) = (   0.8128271   0.3052029   0.6297192  )
        35        P      tau(  35) = (   0.8131636   0.7605812   0.6407714  )
        36        P      tau(  36) = (   0.8100039   1.2196587   0.6247112  )
        37        P      tau(  37) = (   0.1568350   1.3509739   1.1471272  )
        38        P      tau(  38) = (   0.1526765   0.4436406   1.1425537  )
        39        P      tau(  39) = (   0.1644635   0.9000575   1.1588553  )
        40        P      tau(  40) = (   0.4810813   1.3496159   1.1579037  )
        41        P      tau(  41) = (   0.4746888   0.4607761   1.1454568  )
        42        P      tau(  42) = (   0.4821871   0.9104742   1.1535359  )
        43        P      tau(  43) = (   0.7944501   0.0026808   1.1566957  )
        44        P      tau(  44) = (   0.8120320   0.4596058   1.1514303  )
        45        P      tau(  45) = (   0.7989593   0.9103848   1.1509169  )
        46        P      tau(  46) = (   0.1640272   0.0778718   1.3571352  )
        47        P      tau(  47) = (   0.1569776   0.5442000   1.3541461  )
        48        P      tau(  48) = (   0.1611646   0.9892433   1.3703049  )
        49        P      tau(  49) = (   0.4832226   0.0903483   1.3703692  )
        50        P      tau(  50) = (   0.4759511   0.5442710   1.3649974  )
        51        P      tau(  51) = (   0.4917204   0.9847955   1.3590880  )
        52        P      tau(  52) = (   0.8093355   0.0763342   1.3592926  )
        53        P      tau(  53) = (   0.8126384   0.5308443   1.3668634  )
        54        P      tau(  54) = (   0.8117408   0.9869880   1.3703027  )
        55        P      tau(  55) = (   0.0019673   0.2324612   1.3701013  )
        56        P      tau(  56) = (   0.0084776   0.6854608   1.3679469  )
        57        P      tau(  57) = (   0.9562987   1.1204452   1.3651769  )
        58        P      tau(  58) = (   0.3154134   0.2262866   1.3539660  )
        59        P      tau(  59) = (   0.3123839   0.6765522   1.3555231  )
        60        P      tau(  60) = (   0.3180126   1.1247688   1.3703318  )
        61        P      tau(  61) = (   0.6408083   0.2184317   1.3644615  )
        62        P      tau(  62) = (   0.6384505   0.6749487   1.3524600  )
        63        P      tau(  63) = (   0.6496513   1.1392534   1.3543143  )
        64        P      tau(  64) = (   0.9616894   0.3066881   1.1536066  )
        65        P      tau(  65) = (   0.9601658   0.7627597   1.1403752  )
        66        P      tau(  66) = (   0.0008580   1.2186030   1.1435049  )
        67        P      tau(  67) = (   0.3143070   0.3075005   1.1513003  )
        68        P      tau(  68) = (   0.3275953   0.7718627   1.1541772  )
        69        P      tau(  69) = (   0.3129732   1.2238163   1.1533747  )
        70        P      tau(  70) = (   0.6528294   0.3052529   1.1447802  )
        71        P      tau(  71) = (   0.6485161   0.7623268   1.1545848  )
        72        P      tau(  72) = (   0.6369910   1.2105220   1.1450410  )

     number of k points=    26  Gaussian smearing, width (Ry)=  0.0100
                       cart. coord. in units 2pi/alat
        k(    1) = (   0.0000000   0.0000000   0.0000000), wk =   0.0416667
        k(    2) = (   0.0000000   0.1231219   0.0000000), wk =   0.0833333
        k(    3) = (   0.0000000   0.2462438   0.0000000), wk =   0.0833333
        k(    4) = (   0.0000000  -0.3693657   0.0000000), wk =   0.0416667
        k(    5) = (   0.1250000   0.0000000   0.0000000), wk =   0.0833333
        k(    6) = (   0.1250000   0.1231219   0.0000000), wk =   0.0833333
        k(    7) = (   0.1250000   0.2462438   0.0000000), wk =   0.0833333
        k(    8) = (   0.1250000  -0.3693657   0.0000000), wk =   0.0833333
        k(    9) = (   0.2500000   0.0000000   0.0000000), wk =   0.0833333
        k(   10) = (   0.2500000   0.1231219   0.0000000), wk =   0.0833333
        k(   11) = (   0.2500000   0.2462438   0.0000000), wk =   0.0833333
        k(   12) = (   0.2500000  -0.3693657   0.0000000), wk =   0.0833333
        k(   13) = (   0.3750000   0.0000000   0.0000000), wk =   0.0833333
        k(   14) = (   0.3750000   0.1231219   0.0000000), wk =   0.0833333
        k(   15) = (   0.3750000   0.2462438   0.0000000), wk =   0.0833333
        k(   16) = (   0.3750000  -0.3693657   0.0000000), wk =   0.0833333
        k(   17) = (  -0.5000000   0.0000000   0.0000000), wk =   0.0416667
        k(   18) = (  -0.5000000   0.1231219   0.0000000), wk =   0.0833333
        k(   19) = (  -0.5000000   0.2462438   0.0000000), wk =   0.0833333
        k(   20) = (  -0.5000000  -0.3693657   0.0000000), wk =   0.0416667
        k(   21) = (  -0.1250000   0.1231219   0.0000000), wk =   0.0833333
        k(   22) = (  -0.1250000   0.2462438   0.0000000), wk =   0.0833333
        k(   23) = (  -0.2500000   0.1231219   0.0000000), wk =   0.0833333
        k(   24) = (  -0.2500000   0.2462438   0.0000000), wk =   0.0833333
        k(   25) = (  -0.3750000   0.1231219   0.0000000), wk =   0.0833333
        k(   26) = (  -0.3750000   0.2462438   0.0000000), wk =   0.0833333

     Dense  grid:  1306743 G-vectors     FFT dimensions: (  96, 125, 216)

     Estimated max dynamical RAM per process >       1.68 GB

     Estimated total dynamical RAM >      26.55 GB

     Initial potential from superposition of free atoms

     starting charge     359.9899, renormalised to     360.0000

     negative rho (up, down):  2.094E-04 0.000E+00


     %%%%%%%%%%%%%%%%%%%%%%%%%%%%%%%%%%%%%%%%%%%%%%%%%%%%%%%%%%%%%%%%%%%%%%%%
     %                                                                      %
     % You are using vdW-DF, which was implemented by the Thonhauser group. %
     % Please cite the following two papers that made this development      %
     % possible and the two reviews that describe the various versions:     %
     %                                                                      %
     %   T. Thonhauser et al., PRL 115, 136402 (2015).                      %
     %   T. Thonhauser et al., PRB 76, 125112 (2007).                       %
     %   K. Berland et al., Rep. Prog. Phys. 78, 066501 (2015).             %
     %   D.C. Langreth et al., J. Phys.: Condens. Matter 21, 084203 (2009). %
     %                                                                      %
     % If you are calculating stress with vdW-DF, please also cite:         %
     %                                                                      %
     %   R. Sabatini et al., J. Phys.: Condens. Matter 24, 424209 (2012).   %
     %                                                                      %
     %%%%%%%%%%%%%%%%%%%%%%%%%%%%%%%%%%%%%%%%%%%%%%%%%%%%%%%%%%%%%%%%%%%%%%%%

     %%%%%%%%%%%%%%%%%%%%%%%%%%%%%%%%%%%%%%%%%%%%%%%%%%%%%%%%%%%%%%%%%%%%%%%%
     %                                                                      %
     %  vdW-DF NEWS:                                                        %
     %                                                                      %
     %  * vdW-DF3 is now available. DOI: 10.1021/acs.jctc.0c00471           %
     %    use with input_dft = 'vdW-DF3-opt1' or 'vdW-DF3-opt2'             %
     %                                                                      %
     %  * Unscreened and range-separated hybrid vdW-DF-cx functionals       %
     %    DOI: 10.1063/1.4986522 and 10.1088/1361-648X/ac2ad2               %
     %    use with input_dft = 'vdW-DF-cx0'    and 'vdW-DF-ahcx'            %
     %  * Unscreened and range-separated hybrid vdW-DF2-b86r functionals    %
     %    DOI: 10.1063/1.4986522 and DOI: 10.1103/PhysRevX.12.041003        %
     %    use with input_dft = 'vdW-DF2-br0' and 'vdW-DF2-ahbr'             %
     %                                                                      %
     %%%%%%%%%%%%%%%%%%%%%%%%%%%%%%%%%%%%%%%%%%%%%%%%%%%%%%%%%%%%%%%%%%%%%%%%


     Starting wfcs are  288 randomized atomic wfcs

     total cpu time spent up to now is        5.8 secs

     per-process dynamical memory:  1353.7 Mb

     Self-consistent Calculation

     iteration #  1     ecut=    60.00 Ry     beta= 0.70
     Davidson diagonalization with overlap
     ethr =  1.00E-02,  avg # of iterations =  3.0

     Threshold (ethr) on eigenvalues was too large:
     Diagonalizing with lowered threshold

     Davidson diagonalization with overlap
     ethr =  3.14E-04,  avg # of iterations =  7.9

     negative rho (up, down):  6.408E-07 0.000E+00

     total cpu time spent up to now is       19.8 secs

     total energy              =    -995.85616854 Ry
     estimated scf accuracy    <       1.22373346 Ry

     iteration #  2     ecut=    60.00 Ry     beta= 0.70
     Davidson diagonalization with overlap
     ethr =  3.40E-04,  avg # of iterations =  2.3

     negative rho (up, down):  1.911E-08 0.000E+00

     total cpu time spent up to now is       25.4 secs

     total energy              =    -995.73497221 Ry
     estimated scf accuracy    <       0.57431184 Ry

     iteration #  3     ecut=    60.00 Ry     beta= 0.70
     Davidson diagonalization with overlap
     ethr =  1.60E-04,  avg # of iterations = 10.4

     total cpu time spent up to now is       33.6 secs

     total energy              =    -995.66323412 Ry
     estimated scf accuracy    <       2.36669590 Ry

     iteration #  4     ecut=    60.00 Ry     beta= 0.70
     Davidson diagonalization with overlap
     ethr =  1.60E-04,  avg # of iterations =  7.0

     total cpu time spent up to now is       40.5 secs

     total energy              =    -995.94342366 Ry
     estimated scf accuracy    <       0.27486770 Ry

     iteration #  5     ecut=    60.00 Ry     beta= 0.70
     Davidson diagonalization with overlap
     ethr =  7.64E-05,  avg # of iterations =  5.8

     total cpu time spent up to now is       46.9 secs

     total energy              =    -995.98387482 Ry
     estimated scf accuracy    <       0.05817590 Ry

     iteration #  6     ecut=    60.00 Ry     beta= 0.70
     Davidson diagonalization with overlap
     c_bands:  1 eigenvalues not converged
     c_bands:  1 eigenvalues not converged
     c_bands:  1 eigenvalues not converged
     c_bands:  1 eigenvalues not converged
     ethr =  1.62E-05,  avg # of iterations = 15.3

     total cpu time spent up to now is       55.2 secs

     total energy              =    -995.99245137 Ry
     estimated scf accuracy    <       0.01757704 Ry

     iteration #  7     ecut=    60.00 Ry     beta= 0.70
     Davidson diagonalization with overlap
     c_bands:  1 eigenvalues not converged
     c_bands:  1 eigenvalues not converged
     c_bands:  1 eigenvalues not converged
     ethr =  4.88E-06,  avg # of iterations = 10.8

     total cpu time spent up to now is       62.6 secs

     total energy              =    -995.99465058 Ry
     estimated scf accuracy    <       0.00579659 Ry

     iteration #  8     ecut=    60.00 Ry     beta= 0.70
     Davidson diagonalization with overlap
     ethr =  1.61E-06,  avg # of iterations =  7.1

     total cpu time spent up to now is       68.8 secs

     total energy              =    -995.99543177 Ry
     estimated scf accuracy    <       0.00084441 Ry

     iteration #  9     ecut=    60.00 Ry     beta= 0.70
     Davidson diagonalization with overlap
     ethr =  2.35E-07,  avg # of iterations =  3.4

     total cpu time spent up to now is       74.3 secs

     total energy              =    -995.99558034 Ry
     estimated scf accuracy    <       0.00012640 Ry

     iteration # 10     ecut=    60.00 Ry     beta= 0.70
     Davidson diagonalization with overlap
     ethr =  3.51E-08,  avg # of iterations =  4.1

     total cpu time spent up to now is       80.2 secs

     total energy              =    -995.99560249 Ry
     estimated scf accuracy    <       0.00007613 Ry

     iteration # 11     ecut=    60.00 Ry     beta= 0.70
     Davidson diagonalization with overlap
     ethr =  2.11E-08,  avg # of iterations =  2.3

     total cpu time spent up to now is       85.4 secs

     total energy              =    -995.99561372 Ry
     estimated scf accuracy    <       0.00002427 Ry

     iteration # 12     ecut=    60.00 Ry     beta= 0.70
     Davidson diagonalization with overlap
     ethr =  6.74E-09,  avg # of iterations =  2.3

     total cpu time spent up to now is       90.6 secs

     total energy              =    -995.99561642 Ry
     estimated scf accuracy    <       0.00000728 Ry

     iteration # 13     ecut=    60.00 Ry     beta= 0.70
     Davidson diagonalization with overlap
     ethr =  2.02E-09,  avg # of iterations =  2.7

     total cpu time spent up to now is       95.9 secs

     total energy              =    -995.99561754 Ry
     estimated scf accuracy    <       0.00000258 Ry

     iteration # 14     ecut=    60.00 Ry     beta= 0.70
     Davidson diagonalization with overlap
     ethr =  7.16E-10,  avg # of iterations =  2.3

     total cpu time spent up to now is      101.1 secs

     total energy              =    -995.99561788 Ry
     estimated scf accuracy    <       0.00000055 Ry

     iteration # 15     ecut=    60.00 Ry     beta= 0.70
     Davidson diagonalization with overlap
     ethr =  1.54E-10,  avg # of iterations =  3.9

     total cpu time spent up to now is      106.8 secs

     total energy              =    -995.99561798 Ry
     estimated scf accuracy    <       0.00000036 Ry

     iteration # 16     ecut=    60.00 Ry     beta= 0.70
     Davidson diagonalization with overlap
     ethr =  1.01E-10,  avg # of iterations =  2.7

     total cpu time spent up to now is      112.0 secs

     total energy              =    -995.99561804 Ry
     estimated scf accuracy    <       0.00000009 Ry

     iteration # 17     ecut=    60.00 Ry     beta= 0.70
     Davidson diagonalization with overlap
     ethr =  2.60E-11,  avg # of iterations =  2.2

     total cpu time spent up to now is      117.1 secs

     total energy              =    -995.99561804 Ry
     estimated scf accuracy    <       0.00000003 Ry

     iteration # 18     ecut=    60.00 Ry     beta= 0.70
     Davidson diagonalization with overlap
     ethr =  7.44E-12,  avg # of iterations =  2.6

     total cpu time spent up to now is      122.4 secs

     End of self-consistent calculation

          k = 0.0000 0.0000 0.0000 (163323 PWs)   bands (ev):

   -15.2296 -15.0983 -14.8105 -14.6063 -14.5205 -14.3873 -14.0654 -13.8483
   -13.7789 -13.6769 -13.6208 -13.5285 -13.4771 -13.3727 -13.3578 -13.3160
   -13.1951 -13.1329 -13.0242 -12.9762 -12.9136 -12.8066 -12.6166 -12.4501
   -12.2852 -12.2622 -12.2235 -12.0545 -11.8949 -11.7434 -11.6155 -11.4674
   -11.2710 -11.1729 -11.0810 -10.9390 -10.3174 -10.2642 -10.1895 -10.1234
    -9.6332  -9.5205  -9.4622  -9.4353  -9.3316  -9.1966  -9.1547  -9.1039
    -8.9152  -8.7183  -8.6476  -8.6396  -8.4768  -8.4599  -8.2846  -8.1093
    -8.0842  -8.0665  -7.8728  -7.8161  -7.7210  -7.6401  -7.5950  -7.4631
    -7.3820  -7.3665  -7.2310  -7.1103  -6.9566  -6.9096  -6.1225  -6.0776
    -6.0022  -5.9403  -5.8854  -5.8146  -5.7456  -5.7222  -5.6438  -5.6126
    -5.4696  -5.3727  -5.3446  -5.2752  -5.2566  -5.2117  -5.1892  -5.0714
    -5.0571  -5.0258  -4.9869  -4.9190  -4.8494  -4.6710  -4.6309  -4.5135
    -4.4731  -4.3298  -4.1993  -4.1246  -4.0741  -4.0166  -3.6487  -3.5791
    -3.5412  -3.5048  -3.4737  -3.4496  -3.4303  -3.3270  -3.2843  -3.2576
    -3.1981  -3.1636  -3.1477  -3.1147  -3.0606  -3.0232  -2.9964  -2.9747
    -2.9279  -2.8907  -2.8341  -2.7494  -2.6686  -2.6510  -2.6206  -2.5880
    -2.5582  -2.5190  -2.4716  -2.4547  -2.4338  -2.3918  -2.3814  -2.3357
    -2.2939  -2.2767  -2.2581  -2.1823  -2.1547  -2.1189  -2.0897  -2.0581
    -1.9677  -1.9367  -1.8776  -1.8220  -1.7818  -1.7396  -1.7085  -1.6540
    -1.5800  -1.5665  -1.5163  -1.4960  -1.3531  -1.3408  -1.2847  -1.2574
    -1.2247  -1.1303  -1.0745  -1.0114  -0.9772  -0.9234  -0.7770  -0.7382
    -0.6955  -0.6592  -0.6257  -0.5330  -0.5187  -0.5043  -0.0852  -0.0108
    -0.0054   0.0090   0.1190   0.7355   0.8920   0.9958   1.0910   1.1273
     1.1702   1.1981   1.2688   1.2998   1.4485   1.4843   1.5039   1.5541
     1.5897   1.7020   1.7836   1.8076   1.8272   1.8532   2.0155   2.0328
     2.0560   2.0753   2.1761   2.2399   2.3249   2.3632   2.3898   2.4151
     2.4676   2.5145   2.5643   2.6452   2.6688   2.7038   2.7388   2.8170

          k = 0.0000 0.1231 0.0000 (163391 PWs)   bands (ev):

   -15.2179 -15.0904 -14.8671 -14.6627 -14.4468 -14.3092 -14.0569 -13.8548
   -13.8164 -13.6928 -13.6197 -13.5437 -13.5311 -13.4265 -13.3676 -13.3074
   -13.1368 -13.0936 -13.0172 -12.9664 -12.8686 -12.7663 -12.6037 -12.4657
   -12.3754 -12.2754 -12.2334 -12.1485 -11.8030 -11.7133 -11.5835 -11.4410
   -11.2887 -11.1732 -11.1138 -10.9604 -10.3069 -10.2485 -10.1661 -10.0961
    -9.6909  -9.6222  -9.5321  -9.4569  -9.2469  -9.1562  -9.0734  -9.0039
    -8.8829  -8.7071  -8.6570  -8.6423  -8.5089  -8.4011  -8.3447  -8.2049
    -8.1806  -8.1435  -7.8759  -7.7778  -7.7362  -7.6401  -7.5700  -7.4950
    -7.4254  -7.2555  -7.2164  -7.1532  -6.9539  -6.7103  -6.1098  -6.0554
    -5.9869  -5.9457  -5.8622  -5.7990  -5.7383  -5.7144  -5.6800  -5.6268
    -5.5149  -5.4736  -5.4090  -5.3339  -5.2684  -5.2458  -5.2040  -5.1285
    -5.0365  -5.0123  -4.9736  -4.9045  -4.7835  -4.6712  -4.6230  -4.4920
    -4.4478  -4.3304  -4.2870  -4.0885  -3.9779  -3.9049  -3.6285  -3.5863
    -3.5371  -3.4772  -3.4577  -3.4108  -3.3941  -3.3706  -3.2867  -3.2643
    -3.2100  -3.1648  -3.1139  -3.0757  -3.0562  -3.0305  -2.9638  -2.9582
    -2.9237  -2.8935  -2.8568  -2.7897  -2.7584  -2.7230  -2.6749  -2.6492
    -2.6305  -2.5920  -2.5458  -2.5040  -2.4659  -2.4477  -2.3930  -2.3453
    -2.2814  -2.2670  -2.1987  -2.1774  -2.1325  -2.0881  -2.0578  -2.0206
    -1.9475  -1.8883  -1.8714  -1.7782  -1.7372  -1.7026  -1.6644  -1.6154
    -1.5506  -1.5399  -1.5056  -1.4694  -1.3969  -1.3495  -1.3390  -1.2826
    -1.2062  -1.1072  -1.0344  -0.9706  -0.8907  -0.8689  -0.7583  -0.7328
    -0.7074  -0.6689  -0.6245  -0.5487  -0.5375  -0.5060  -0.2247  -0.1465
    -0.1012  -0.0720   0.0412   0.5795   0.9257   1.0254   1.1369   1.1835
     1.2544   1.2952   1.3160   1.3526   1.4535   1.5145   1.5400   1.5699
     1.6331   1.7316   1.7778   1.8390   1.8730   1.8994   2.0012   2.0276
     2.0643   2.1116   2.2018   2.2401   2.3064   2.3236   2.3609   2.4076
     2.4531   2.5015   2.5522   2.5913   2.6354   2.7240   2.7547   2.7826

          k = 0.0000 0.2462 0.0000 (163347 PWs)   bands (ev):

   -15.1873 -15.0723 -14.9566 -14.7405 -14.3069 -14.1682 -14.0404 -13.9135
   -13.8893 -13.7268 -13.6400 -13.6029 -13.5548 -13.5020 -13.3821 -13.3046
   -13.0698 -13.0399 -12.9679 -12.9051 -12.8056 -12.6870 -12.5805 -12.5052
   -12.4618 -12.3585 -12.2935 -12.2711 -11.6954 -11.6223 -11.5338 -11.3960
   -11.3198 -11.1905 -11.1639 -11.0172 -10.2834 -10.2118 -10.1148 -10.0300
    -9.7874  -9.7313  -9.6452  -9.5559  -9.0837  -9.0142  -8.9666  -8.8454
    -8.8035  -8.7361  -8.6612  -8.5879  -8.5533  -8.4797  -8.3814  -8.3605
    -8.3037  -8.2076  -8.1024  -7.7673  -7.6840  -7.6062  -7.5483  -7.4723
    -7.4131  -7.2882  -7.2498  -7.1171  -6.7208  -6.4488  -6.1409  -6.0223
    -5.9819  -5.9163  -5.8668  -5.8114  -5.7290  -5.6846  -5.6749  -5.6487
    -5.6231  -5.5607  -5.4933  -5.4594  -5.3812  -5.3288  -5.3085  -5.1776
    -5.0327  -4.9888  -4.9246  -4.7944  -4.7301  -4.6616  -4.6053  -4.4970
    -4.4538  -4.3707  -4.2139  -4.0183  -3.7663  -3.7610  -3.6727  -3.6008
    -3.5334  -3.4446  -3.4105  -3.3735  -3.3245  -3.3031  -3.2671  -3.2372
    -3.2227  -3.1951  -3.1732  -3.1219  -3.0758  -3.0448  -3.0113  -2.9813
    -2.9254  -2.8974  -2.8479  -2.8323  -2.7958  -2.7858  -2.7724  -2.7305
    -2.6856  -2.6432  -2.5984  -2.5425  -2.5262  -2.5055  -2.4107  -2.3954
    -2.3649  -2.2524  -2.2258  -2.1555  -2.1052  -2.0442  -2.0187  -1.9770
    -1.9166  -1.9106  -1.8553  -1.8067  -1.7173  -1.6727  -1.6241  -1.5950
    -1.5476  -1.4889  -1.4448  -1.4006  -1.3565  -1.2941  -1.2322  -1.1468
    -1.0810  -1.0103  -0.9385  -0.9159  -0.8473  -0.8356  -0.7627  -0.7420
    -0.6968  -0.6723  -0.6367  -0.6034  -0.5762  -0.5025  -0.4635  -0.3976
    -0.2784  -0.2585  -0.1721   0.3003   0.9862   1.0649   1.1948   1.2758
     1.3489   1.3986   1.4678   1.4779   1.5268   1.5867   1.6132   1.6672
     1.7658   1.8066   1.8177   1.8807   1.9103   1.9567   2.0182   2.0416
     2.0755   2.1145   2.1353   2.2124   2.2513   2.3182   2.3715   2.4112
     2.4630   2.4968   2.5127   2.5510   2.6194   2.6471   2.6780   2.7459

          k = 0.0000-0.3694 0.0000 (163314 PWs)   bands (ev):

   -15.1644 -15.0615 -15.0017 -14.7735 -14.2134 -14.0632 -14.0345 -13.9879
   -13.9542 -13.7520 -13.6494 -13.6174 -13.5662 -13.5256 -13.3949 -13.3061
   -13.0474 -13.0101 -12.9308 -12.8636 -12.7770 -12.6551 -12.6015 -12.4779
   -12.4750 -12.4161 -12.3656 -12.3191 -11.6463 -11.5670 -11.5118 -11.3863
   -11.3299 -11.2341 -11.1451 -11.0639 -10.2702 -10.1902 -10.0828  -9.9855
    -9.8363  -9.7758  -9.7044  -9.6021  -8.9645  -8.9327  -8.9207  -8.8175
    -8.7689  -8.7028  -8.6531  -8.5769  -8.5560  -8.5300  -8.4773  -8.4248
    -8.3584  -8.2857  -8.0527  -7.9341  -7.6456  -7.5733  -7.5193  -7.4229
    -7.3820  -7.3302  -7.2645  -7.1395  -6.4484  -6.3302  -6.2752  -6.1042
    -5.9340  -5.8887  -5.8538  -5.7833  -5.7797  -5.7408  -5.6674  -5.6127
    -5.5928  -5.5735  -5.5351  -5.5199  -5.4344  -5.4040  -5.3702  -5.2385
    -5.0087  -4.9771  -4.8532  -4.8153  -4.7135  -4.6073  -4.5932  -4.5131
    -4.4964  -4.3992  -4.0439  -3.9826  -3.8231  -3.7326  -3.5855  -3.5476
    -3.4980  -3.4528  -3.4313  -3.3944  -3.3383  -3.3179  -3.2803  -3.2071
    -3.1914  -3.1642  -3.1576  -3.1165  -3.1098  -3.0875  -3.0341  -2.9923
    -2.9531  -2.9165  -2.8747  -2.8635  -2.8213  -2.7854  -2.7726  -2.7328
    -2.7133  -2.6746  -2.6171  -2.5923  -2.5225  -2.4694  -2.4526  -2.3836
    -2.3203  -2.2634  -2.2253  -2.1920  -2.1285  -2.0737  -2.0255  -1.9734
    -1.9367  -1.8996  -1.8593  -1.7786  -1.7559  -1.6734  -1.6625  -1.6154
    -1.5345  -1.5127  -1.4268  -1.3841  -1.1861  -1.1163  -1.0681  -0.9977
    -0.9678  -0.9605  -0.9186  -0.8949  -0.8682  -0.8460  -0.8159  -0.7612
    -0.7173  -0.6979  -0.6773  -0.6313  -0.6152  -0.5577  -0.5463  -0.4874
    -0.4382  -0.4209  -0.0532   0.0353   1.0155   1.0950   1.1786   1.3029
     1.4204   1.4542   1.5107   1.5513   1.6108   1.6601   1.7145   1.7488
     1.7791   1.7891   1.8549   1.9048   1.9345   1.9547   2.0150   2.0590
     2.0864   2.1094   2.1474   2.2092   2.2370   2.2792   2.3322   2.3792
     2.4138   2.4782   2.5431   2.5863   2.6055   2.6396   2.6698   2.7278

          k = 0.1250 0.0000 0.0000 (163343 PWs)   bands (ev):

   -15.2152 -15.0848 -14.7986 -14.5943 -14.5146 -14.3793 -14.1539 -13.9860
   -13.8301 -13.6488 -13.6413 -13.5523 -13.4524 -13.3810 -13.3633 -13.3244
   -13.1801 -13.0931 -12.9559 -12.8809 -12.8203 -12.7033 -12.5585 -12.4381
   -12.3503 -12.2966 -12.2826 -12.1577 -11.7725 -11.6860 -11.6236 -11.4685
   -11.3535 -11.2514 -10.9400 -10.7310 -10.6586 -10.5436 -10.0301  -9.9031
    -9.7495  -9.6110  -9.5737  -9.4782  -9.2596  -9.0989  -9.0452  -8.9802
    -8.8905  -8.7309  -8.6557  -8.6323  -8.5279  -8.4886  -8.4496  -8.3892
    -8.3142  -8.2789  -7.9573  -7.7834  -7.6849  -7.5669  -7.5113  -7.4679
    -7.4165  -7.3191  -7.1668  -6.9944  -6.7172  -6.5679  -6.0869  -6.0236
    -5.9409  -5.8913  -5.8269  -5.7688  -5.7144  -5.6364  -5.5788  -5.5716
    -5.4335  -5.3517  -5.3072  -5.2566  -5.2027  -5.1802  -5.1469  -5.0540
    -5.0156  -4.9860  -4.9698  -4.8587  -4.7816  -4.7007  -4.5863  -4.5230
    -4.4550  -4.3207  -4.1948  -4.1306  -4.1072  -4.0191  -3.7794  -3.7121
    -3.6635  -3.6408  -3.6001  -3.5084  -3.4959  -3.4416  -3.3872  -3.3512
    -3.3030  -3.2715  -3.2458  -3.1762  -3.1384  -3.1132  -3.0564  -3.0066
    -2.9809  -2.8855  -2.8634  -2.8298  -2.7769  -2.7334  -2.6912  -2.6489
    -2.6220  -2.5763  -2.5173  -2.4698  -2.4085  -2.3777  -2.3376  -2.2943
    -2.2696  -2.2362  -2.1984  -2.1500  -2.1329  -2.0920  -2.0527  -2.0056
    -1.9547  -1.9037  -1.8642  -1.8031  -1.7842  -1.7349  -1.7069  -1.6545
    -1.6375  -1.5654  -1.4959  -1.4593  -1.3861  -1.2950  -1.2589  -1.2263
    -1.1825  -1.1155  -1.0898  -1.0235  -0.9677  -0.9332  -0.9016  -0.8064
    -0.7333  -0.6666  -0.6358  -0.6020  -0.3812  -0.3120  -0.0922  -0.0402
    -0.0115   0.0042   0.1063   0.8027   0.9107   1.0411   1.1187   1.1410
     1.2487   1.3000   1.3420   1.3897   1.5148   1.5536   1.6207   1.6369
     1.6776   1.7776   1.7994   1.8949   1.9089   1.9232   1.9897   2.0689
     2.0983   2.1244   2.1714   2.2527   2.3554   2.4081   2.4324   2.4646
     2.5215   2.5605   2.5985   2.6339   2.6807   2.7011   2.7725   2.8208

          k = 0.1250 0.1231 0.0000 (163331 PWs)   bands (ev):

   -15.2034 -15.0768 -14.8559 -14.6521 -14.4411 -14.2946 -14.1446 -13.9823
   -13.8959 -13.7202 -13.6088 -13.5565 -13.4512 -13.4103 -13.3654 -13.3295
   -13.1224 -13.0472 -12.9586 -12.8940 -12.8274 -12.6384 -12.5616 -12.4984
   -12.4329 -12.3450 -12.2248 -12.0571 -11.8466 -11.7325 -11.6030 -11.4296
   -11.2796 -11.2162 -11.0243 -10.8595 -10.5735 -10.4309 -10.1206  -9.9795
    -9.7070  -9.5785  -9.5359  -9.4812  -9.2322  -9.1289  -9.0524  -8.9305
    -8.8606  -8.7702  -8.6729  -8.6270  -8.5407  -8.5101  -8.4782  -8.3766
    -8.2385  -8.2115  -7.9785  -7.8938  -7.7912  -7.7018  -7.6397  -7.4128
    -7.2956  -7.2412  -7.1270  -6.8646  -6.6883  -6.5484  -6.0761  -6.0019
    -5.9236  -5.8943  -5.8156  -5.7455  -5.6992  -5.6789  -5.5932  -5.5638
    -5.4923  -5.4300  -5.3599  -5.3224  -5.2413  -5.2056  -5.1492  -5.0747
    -5.0331  -4.9731  -4.9182  -4.8734  -4.7569  -4.7098  -4.5752  -4.4750
    -4.4341  -4.3228  -4.2844  -4.1156  -3.9797  -3.9163  -3.7705  -3.7118
    -3.6654  -3.5936  -3.5719  -3.4974  -3.4740  -3.4478  -3.3975  -3.3535
    -3.3033  -3.2675  -3.2408  -3.1905  -3.1294  -3.0814  -3.0339  -3.0107
    -2.9777  -2.9140  -2.8736  -2.8183  -2.7903  -2.7495  -2.6960  -2.6871
    -2.6590  -2.6334  -2.5885  -2.5366  -2.4837  -2.4326  -2.4028  -2.3492
    -2.2994  -2.2599  -2.1742  -2.1217  -2.1030  -2.0917  -2.0336  -2.0040
    -1.9569  -1.8984  -1.8306  -1.7613  -1.7486  -1.7040  -1.6726  -1.6215
    -1.5714  -1.5317  -1.4629  -1.4445  -1.3800  -1.3335  -1.2743  -1.1932
    -1.1515  -1.1121  -1.0732  -1.0081  -0.9619  -0.8902  -0.8215  -0.7745
    -0.7231  -0.6699  -0.6292  -0.5813  -0.4177  -0.3470  -0.2217  -0.1165
    -0.1008  -0.0697   0.0281   0.5947   1.0151   1.1213   1.1379   1.2493
     1.3009   1.3268   1.3663   1.4275   1.5371   1.5964   1.6259   1.6761
     1.6940   1.7820   1.8455   1.8748   1.9081   1.9721   2.0045   2.0341
     2.1252   2.1305   2.2242   2.2530   2.2908   2.3510   2.3919   2.4504
     2.5039   2.5327   2.5547   2.6306   2.6927   2.7297   2.7631   2.8439

          k = 0.1250 0.2462 0.0000 (163316 PWs)   bands (ev):

   -15.1729 -15.0588 -14.9440 -14.7277 -14.3154 -14.1626 -14.0974 -13.9921
   -13.9700 -13.8153 -13.7159 -13.5631 -13.5134 -13.3710 -13.3538 -13.2831
   -13.0510 -13.0139 -12.9429 -12.8766 -12.8052 -12.6439 -12.6055 -12.5428
   -12.4472 -12.3440 -12.2354 -12.1034 -11.8118 -11.7043 -11.6002 -11.4206
   -11.2113 -11.1494 -11.1070 -10.9953 -10.4574 -10.3239 -10.2212 -10.0946
    -9.6826  -9.5727  -9.5500  -9.4374  -9.1851  -9.1270  -8.9906  -8.9298
    -8.8759  -8.7414  -8.6602  -8.6483  -8.5981  -8.5019  -8.4116  -8.3134
    -8.2169  -8.1615  -8.0879  -7.9875  -7.9393  -7.8170  -7.7775  -7.6008
    -7.1237  -7.1005  -6.8680  -6.7973  -6.6406  -6.4093  -6.1128  -5.9871
    -5.9237  -5.8743  -5.8194  -5.7771  -5.7040  -5.6376  -5.6128  -5.5873
    -5.5468  -5.4848  -5.4436  -5.4314  -5.3397  -5.2914  -5.2379  -5.1080
    -5.0410  -4.9734  -4.9173  -4.8145  -4.7110  -4.6481  -4.5672  -4.4844
    -4.4258  -4.3673  -4.2051  -4.0348  -3.8563  -3.8065  -3.7488  -3.6865
    -3.6327  -3.6025  -3.5408  -3.4638  -3.4367  -3.3949  -3.3523  -3.3224
    -3.2633  -3.2440  -3.2064  -3.1525  -3.1240  -3.1043  -3.0881  -3.0477
    -2.9972  -2.9683  -2.9204  -2.8896  -2.8064  -2.7916  -2.7731  -2.7323
    -2.7086  -2.6879  -2.6607  -2.5868  -2.5386  -2.5236  -2.4723  -2.4166
    -2.3538  -2.2553  -2.2418  -2.1662  -2.1267  -2.0919  -2.0066  -1.9750
    -1.9480  -1.8729  -1.7999  -1.7795  -1.7287  -1.7097  -1.6373  -1.5619
    -1.5043  -1.4433  -1.4077  -1.3639  -1.3111  -1.2531  -1.1751  -1.1052
    -1.0871  -1.0129  -0.9674  -0.9386  -0.8838  -0.8514  -0.8096  -0.7476
    -0.7360  -0.7115  -0.5783  -0.5625  -0.4850  -0.4467  -0.4258  -0.3271
    -0.2795  -0.2187  -0.1557   0.3061   1.0735   1.1810   1.2610   1.3123
     1.3808   1.4011   1.4825   1.5342   1.5950   1.6645   1.6878   1.7171
     1.8124   1.8234   1.8739   1.9342   1.9738   1.9870   1.9970   2.0657
     2.1032   2.1298   2.1915   2.2342   2.2830   2.3214   2.3564   2.4414
     2.4993   2.5369   2.5669   2.5916   2.6488   2.6754   2.7271   2.7735

          k = 0.1250-0.3694 0.0000 (163396 PWs)   bands (ev):

   -15.1507 -15.0484 -14.9878 -14.7584 -14.2587 -14.0790 -14.0532 -14.0107
   -13.9989 -13.8438 -13.8043 -13.6347 -13.4929 -13.3803 -13.3238 -13.2477
   -13.0305 -13.0160 -12.9063 -12.8526 -12.7925 -12.7236 -12.6375 -12.5147
   -12.3839 -12.3354 -12.2681 -12.2100 -11.7389 -11.6602 -11.5836 -11.4562
   -11.2501 -11.1613 -11.0881 -10.9931 -10.4113 -10.3345 -10.2186 -10.1312
    -9.6756  -9.5965  -9.5676  -9.4335  -9.1538  -9.0649  -9.0221  -8.9353
    -8.8500  -8.7564  -8.6869  -8.6168  -8.5339  -8.4391  -8.3981  -8.3528
    -8.2682  -8.2026  -8.0835  -8.0193  -7.9170  -7.8941  -7.8512  -7.7043
    -7.0220  -6.9665  -6.8983  -6.8057  -6.4278  -6.3091  -6.2555  -6.0918
    -5.8971  -5.8372  -5.8022  -5.7504  -5.7237  -5.6905  -5.6204  -5.5805
    -5.5233  -5.5150  -5.4658  -5.4462  -5.3836  -5.3390  -5.2987  -5.1766
    -5.0387  -4.9885  -4.8665  -4.8270  -4.6802  -4.5798  -4.5585  -4.5112
    -4.4621  -4.3853  -4.0550  -4.0092  -3.9103  -3.8324  -3.7027  -3.6259
    -3.5672  -3.5295  -3.5100  -3.4636  -3.4321  -3.3847  -3.3774  -3.3162
    -3.2693  -3.2299  -3.2072  -3.1619  -3.1400  -3.0930  -3.0430  -3.0082
    -2.9998  -2.9766  -2.9512  -2.9189  -2.8803  -2.8614  -2.8292  -2.7947
    -2.7698  -2.7170  -2.6625  -2.5854  -2.5720  -2.5057  -2.4510  -2.4088
    -2.3376  -2.3084  -2.2347  -2.2086  -2.1352  -2.1044  -2.0698  -1.9991
    -1.9576  -1.8541  -1.8169  -1.7913  -1.7196  -1.6825  -1.6200  -1.5545
    -1.5200  -1.4913  -1.3393  -1.2923  -1.1651  -1.1353  -1.0821  -0.9991
    -0.9796  -0.9549  -0.9316  -0.8838  -0.8666  -0.8307  -0.7984  -0.7608
    -0.7278  -0.7055  -0.6677  -0.6333  -0.5544  -0.5356  -0.4852  -0.4599
    -0.3853  -0.3447  -0.0430   0.0455   1.1076   1.1787   1.2742   1.3692
     1.3931   1.4739   1.5231   1.6129   1.6211   1.7064   1.7571   1.7736
     1.8009   1.8753   1.8868   1.9289   1.9647   2.0057   2.0652   2.0924
     2.1328   2.1785   2.2090   2.2257   2.2725   2.3205   2.3436   2.3924
     2.4732   2.4880   2.5492   2.5821   2.6370   2.6791   2.7084   2.7739

          k = 0.2500 0.0000 0.0000 (163382 PWs)   bands (ev):

   -15.1753 -15.0478 -14.7667 -14.5652 -14.5250 -14.3695 -14.2455 -14.1686
   -13.9550 -13.7874 -13.7566 -13.5909 -13.5374 -13.3424 -13.2685 -13.1946
   -13.1007 -13.0038 -12.8168 -12.7061 -12.6610 -12.5619 -12.4960 -12.4486
   -12.3721 -12.3148 -12.2824 -12.2457 -11.7623 -11.6428 -11.5996 -11.5263
   -11.3483 -11.2938 -11.0611 -10.9383 -10.6103 -10.4110 -10.0957  -9.9320
    -9.8854  -9.7539  -9.4408  -9.3832  -9.1519  -9.0517  -9.0008  -8.9492
    -8.9164  -8.8496  -8.8040  -8.7234  -8.6830  -8.6190  -8.5891  -8.5246
    -8.4465  -8.3996  -8.3421  -8.1929  -7.5998  -7.4387  -7.3725  -7.3293
    -7.2383  -7.1094  -7.0864  -6.9395  -6.2168  -6.1120  -5.9676  -5.8590
    -5.7957  -5.7176  -5.6583  -5.6048  -5.5668  -5.5067  -5.4283  -5.3993
    -5.3474  -5.2860  -5.2089  -5.1581  -5.1137  -5.0359  -5.0176  -4.9731
    -4.8887  -4.8671  -4.8310  -4.7666  -4.7218  -4.6636  -4.5807  -4.5173
    -4.4115  -4.3310  -4.2467  -4.2094  -4.1602  -4.0654  -4.0203  -3.9550
    -3.9174  -3.8786  -3.8478  -3.7845  -3.7492  -3.7045  -3.6514  -3.6161
    -3.5894  -3.5004  -3.4283  -3.3965  -3.3297  -3.2692  -3.2198  -3.1306
    -3.0784  -3.0445  -2.9830  -2.9597  -2.8896  -2.8681  -2.8261  -2.7691
    -2.7112  -2.6714  -2.6289  -2.5854  -2.5399  -2.4258  -2.3444  -2.3234
    -2.2645  -2.1900  -2.1595  -2.1134  -2.0696  -2.0140  -1.9652  -1.9214
    -1.8928  -1.8437  -1.7975  -1.7605  -1.7169  -1.6890  -1.6208  -1.5996
    -1.5397  -1.4921  -1.4660  -1.4394  -1.3974  -1.2408  -1.2124  -1.1943
    -1.1386  -1.0956  -1.0584  -1.0124  -0.9761  -0.9239  -0.8748  -0.8508
    -0.7876  -0.7266  -0.7174  -0.6527  -0.2698  -0.1901  -0.1633  -0.1151
    -0.0455   0.0580   0.1314   0.8333   0.9623   1.1555   1.1701   1.2842
     1.3671   1.4192   1.4553   1.5640   1.6281   1.7037   1.7234   1.7941
     1.8570   1.8809   1.9349   1.9858   2.0679   2.1272   2.1430   2.1989
     2.2409   2.2763   2.3422   2.4075   2.4801   2.5074   2.5515   2.5814
     2.6063   2.6586   2.7263   2.7553   2.7962   2.8258   2.8578   2.9188

          k = 0.2500 0.1231 0.0000 (163343 PWs)   bands (ev):

   -15.1635 -15.0399 -14.8232 -14.6206 -14.4714 -14.2876 -14.2108 -14.1628
   -14.0378 -13.8602 -13.6633 -13.5803 -13.5026 -13.4301 -13.3180 -13.1642
   -13.0629 -12.9493 -12.8191 -12.7411 -12.6857 -12.5911 -12.5558 -12.4532
   -12.3821 -12.3017 -12.2242 -12.1488 -11.7549 -11.7148 -11.6534 -11.5254
   -11.2878 -11.2212 -11.1005 -10.9946 -10.5745 -10.3897 -10.1663  -9.9999
    -9.7947  -9.6805  -9.4350  -9.3889  -9.1732  -9.1173  -9.0311  -8.9600
    -8.9421  -8.8163  -8.7758  -8.7229  -8.6623  -8.6114  -8.5680  -8.5055
    -8.4315  -8.3880  -8.2651  -8.2023  -7.8111  -7.6452  -7.4761  -7.3235
    -7.1017  -7.0628  -6.9363  -6.7469  -6.2308  -6.1261  -5.9801  -5.8447
    -5.7770  -5.7241  -5.6577  -5.6162  -5.5640  -5.5143  -5.4480  -5.3977
    -5.3749  -5.3247  -5.2620  -5.2035  -5.1462  -5.0790  -5.0078  -4.9902
    -4.9360  -4.8460  -4.8366  -4.7595  -4.7115  -4.6750  -4.5472  -4.4757
    -4.4079  -4.3460  -4.2974  -4.2265  -4.0932  -4.0577  -3.9740  -3.9417
    -3.9120  -3.8514  -3.7745  -3.7355  -3.7078  -3.6596  -3.6447  -3.5931
    -3.5559  -3.5043  -3.4332  -3.3919  -3.3430  -3.2883  -3.1689  -3.1539
    -3.0795  -3.0540  -2.9944  -2.9572  -2.8890  -2.8723  -2.8074  -2.7607
    -2.7354  -2.6778  -2.6404  -2.5905  -2.5767  -2.5344  -2.4789  -2.4022
    -2.3653  -2.3253  -2.2241  -2.1291  -2.0870  -2.0081  -1.9760  -1.9311
    -1.8491  -1.8011  -1.7787  -1.7275  -1.7022  -1.6388  -1.5798  -1.5510
    -1.4931  -1.4795  -1.4015  -1.3575  -1.3104  -1.2977  -1.2047  -1.1589
    -1.1128  -1.0845  -1.0630  -0.9846  -0.9515  -0.9085  -0.8601  -0.7995
    -0.7660  -0.7373  -0.6479  -0.5920  -0.3560  -0.2581  -0.1983  -0.1610
    -0.1061  -0.0343   0.0633   0.6093   1.1154   1.2276   1.2669   1.3343
     1.3483   1.4357   1.4677   1.5420   1.6618   1.7093   1.7760   1.8340
     1.8507   1.9070   1.9384   1.9703   2.0409   2.1179   2.1401   2.1873
     2.2470   2.2871   2.3063   2.3572   2.4151   2.4817   2.5136   2.5803
     2.6004   2.6515   2.6966   2.7480   2.7796   2.8183   2.8408   2.8803

          k = 0.2500 0.2462 0.0000 (163340 PWs)   bands (ev):

   -15.1338 -15.0226 -14.9080 -14.6897 -14.4037 -14.1914 -14.1555 -14.1267
   -14.0690 -13.9431 -13.7186 -13.5834 -13.5242 -13.3805 -13.3378 -13.1749
   -13.0072 -12.9069 -12.8264 -12.7766 -12.7060 -12.6619 -12.6362 -12.4370
   -12.3646 -12.2580 -12.1677 -12.0574 -11.8009 -11.7502 -11.6693 -11.5332
   -11.2473 -11.1787 -11.1421 -11.0351 -10.5145 -10.3709 -10.2357 -10.0906
    -9.6608  -9.5845  -9.4308  -9.3859  -9.2775  -9.1675  -9.1026  -9.0359
    -8.9018  -8.7629  -8.7452  -8.7052  -8.6650  -8.5723  -8.5124  -8.4826
    -8.3825  -8.3141  -8.2008  -8.0944  -8.0508  -7.9072  -7.7270  -7.5777
    -6.8170  -6.7536  -6.7066  -6.5160  -6.3070  -6.1847  -6.0518  -5.9230
    -5.7976  -5.7239  -5.6513  -5.6196  -5.5760  -5.4872  -5.4619  -5.4353
    -5.3727  -5.3290  -5.3105  -5.2591  -5.2035  -5.1621  -5.0931  -5.0239
    -4.9737  -4.8912  -4.8110  -4.7957  -4.6893  -4.5914  -4.5585  -4.4811
    -4.4357  -4.3507  -4.2400  -4.1941  -4.1009  -4.0635  -3.9356  -3.9038
    -3.8044  -3.7866  -3.7323  -3.7007  -3.6604  -3.6045  -3.5224  -3.4923
    -3.4586  -3.4387  -3.3872  -3.3309  -3.3125  -3.2510  -3.2072  -3.1680
    -3.1254  -3.0634  -3.0225  -2.9889  -2.9506  -2.8883  -2.8728  -2.8319
    -2.7881  -2.7672  -2.7403  -2.6665  -2.6294  -2.5788  -2.5254  -2.4910
    -2.4446  -2.3935  -2.3801  -2.2797  -2.2154  -2.0795  -2.0234  -1.9576
    -1.8766  -1.8044  -1.6979  -1.6507  -1.6101  -1.5397  -1.5282  -1.4595
    -1.4201  -1.3633  -1.3104  -1.2863  -1.2453  -1.2050  -1.1258  -1.0747
    -1.0568  -0.9976  -0.9602  -0.9300  -0.8843  -0.8606  -0.8404  -0.7926
    -0.7544  -0.7269  -0.5685  -0.5026  -0.4329  -0.4102  -0.3615  -0.3186
    -0.2420  -0.1909  -0.0497   0.3159   1.1826   1.3060   1.3293   1.3633
     1.4635   1.4865   1.5445   1.6134   1.6862   1.7478   1.8114   1.8528
     1.8832   1.9172   1.9672   2.0039   2.0674   2.0912   2.1265   2.1768
     2.1963   2.2283   2.2635   2.3497   2.4085   2.4729   2.5130   2.5464
     2.5637   2.6174   2.6413   2.6795   2.7226   2.7689   2.8092   2.8680

          k = 0.2500-0.3694 0.0000 (163330 PWs)   bands (ev):

   -15.1128 -15.0128 -14.9495 -14.7161 -14.3785 -14.2059 -14.1702 -14.0509
   -13.9890 -13.9228 -13.8532 -13.6835 -13.4607 -13.3455 -13.2951 -13.2092
   -13.0065 -12.8948 -12.8380 -12.7726 -12.7411 -12.6904 -12.6228 -12.4518
   -12.3388 -12.2353 -12.1529 -12.0575 -11.8211 -11.7423 -11.6306 -11.5424
   -11.2892 -11.2191 -11.1244 -10.9984 -10.4862 -10.3783 -10.2514 -10.1258
    -9.5934  -9.5410  -9.4506  -9.3863  -9.3109  -9.1784  -9.1319  -9.1015
    -8.8583  -8.7854  -8.7294  -8.6837  -8.6341  -8.5628  -8.5078  -8.4221
    -8.3346  -8.2816  -8.1900  -8.1406  -8.0113  -7.9573  -7.8650  -7.7924
    -6.6137  -6.5880  -6.5100  -6.4660  -6.3590  -6.2533  -6.1849  -6.0568
    -5.7790  -5.6810  -5.6642  -5.6190  -5.5517  -5.5261  -5.4658  -5.4256
    -5.3740  -5.3452  -5.3037  -5.2614  -5.2249  -5.1725  -5.1455  -5.0378
    -5.0094  -4.9627  -4.8188  -4.7716  -4.6529  -4.5862  -4.5478  -4.4895
    -4.4593  -4.3595  -4.2357  -4.1556  -4.0748  -4.0432  -3.9366  -3.8970
    -3.8666  -3.8066  -3.6291  -3.5912  -3.5755  -3.5276  -3.4858  -3.4763
    -3.4240  -3.3805  -3.3535  -3.3121  -3.2771  -3.2442  -3.2135  -3.1561
    -3.1207  -3.0829  -3.0533  -3.0321  -3.0029  -2.9688  -2.9097  -2.8912
    -2.8623  -2.8132  -2.7646  -2.7006  -2.6594  -2.6031  -2.5762  -2.5228
    -2.4637  -2.4381  -2.3638  -2.3075  -2.1786  -2.1543  -2.0339  -1.9957
    -1.9452  -1.9113  -1.6597  -1.6268  -1.5372  -1.5080  -1.4840  -1.4283
    -1.3986  -1.3400  -1.2378  -1.2093  -1.1592  -1.1234  -1.0956  -1.0210
    -0.9767  -0.9542  -0.9298  -0.8748  -0.8671  -0.8278  -0.7822  -0.7518
    -0.7194  -0.6684  -0.6489  -0.5795  -0.5328  -0.5111  -0.4617  -0.4235
    -0.2505  -0.2076  -0.0227   0.0638   1.1967   1.2598   1.3453   1.4459
     1.4647   1.5551   1.5726   1.6730   1.7349   1.7591   1.8235   1.8438
     1.8877   1.9392   1.9547   2.0173   2.0592   2.0770   2.1652   2.2017
     2.2348   2.2602   2.2975   2.3571   2.3795   2.4169   2.4645   2.5317
     2.5443   2.5574   2.6273   2.6491   2.6883   2.7574   2.8201   2.8438

          k = 0.3750 0.0000 0.0000 (163404 PWs)   bands (ev):

   -15.1239 -15.0014 -14.7298 -14.6050 -14.5336 -14.3607 -14.2718 -14.2330
   -14.0592 -13.9232 -13.9103 -13.7211 -13.5135 -13.2906 -13.1597 -13.1454
   -13.0072 -12.9617 -12.6999 -12.6576 -12.5597 -12.4950 -12.4632 -12.3867
   -12.3400 -12.2427 -12.1471 -12.0777 -11.7967 -11.7363 -11.6459 -11.6042
   -11.4356 -11.3682 -11.3074 -11.1625 -10.3427 -10.2166 -10.0462  -9.9244
    -9.8754  -9.7455  -9.4840  -9.3806  -9.2588  -9.1830  -9.1450  -9.0901
    -9.0211  -8.9357  -8.8880  -8.8528  -8.7505  -8.7215  -8.6425  -8.5901
    -8.5459  -8.4117  -8.3935  -8.2881  -7.5646  -7.3746  -7.3332  -7.2518
    -7.1437  -7.0068  -6.9648  -6.8761  -5.8870  -5.7732  -5.6800  -5.6210
    -5.5481  -5.4707  -5.4443  -5.4143  -5.3461  -5.3047  -5.2664  -5.2034
    -5.1931  -5.1475  -5.0277  -4.9995  -4.9691  -4.9251  -4.8814  -4.8322
    -4.8056  -4.7529  -4.7211  -4.6760  -4.6238  -4.5814  -4.5597  -4.5472
    -4.4835  -4.4356  -4.3802  -4.3469  -4.3206  -4.2868  -4.2195  -4.1623
    -4.1032  -4.0810  -4.0580  -4.0143  -3.9668  -3.9338  -3.8764  -3.8449
    -3.7679  -3.7071  -3.6392  -3.5956  -3.5407  -3.5174  -3.4729  -3.4020
    -3.3430  -3.3018  -3.2642  -3.1651  -3.1324  -2.9895  -2.8988  -2.8233
    -2.7676  -2.7490  -2.6869  -2.6153  -2.5877  -2.4886  -2.4219  -2.3408
    -2.2631  -2.1704  -2.1314  -2.0763  -2.0116  -1.9707  -1.9031  -1.8842
    -1.7999  -1.7534  -1.7338  -1.7221  -1.6610  -1.6205  -1.5829  -1.5663
    -1.4753  -1.4584  -1.4193  -1.3562  -1.2329  -1.2042  -1.1576  -1.1098
    -1.0893  -1.0511  -1.0136  -0.9844  -0.9359  -0.9057  -0.8685  -0.8392
    -0.7945  -0.7233  -0.7112  -0.6637  -0.4128  -0.3736  -0.2618  -0.2382
    -0.0115   0.0875   0.3530   0.7504   1.0363   1.2023   1.2709   1.2949
     1.3879   1.4282   1.4589   1.6454   1.7511   1.8351   1.8870   1.9354
     1.9683   2.0606   2.1643   2.2246   2.2547   2.2975   2.3194   2.3406
     2.3997   2.4251   2.4780   2.5116   2.5886   2.6139   2.6387   2.6851
     2.7127   2.7386   2.7585   2.7987   2.8425   2.8898   2.9110   3.0058

          k = 0.3750 0.1231 0.0000 (163358 PWs)   bands (ev):

   -15.1126 -14.9940 -14.7835 -14.5991 -14.5480 -14.3268 -14.2371 -14.2049
   -14.1259 -13.9859 -13.8006 -13.6364 -13.5562 -13.3892 -13.2419 -13.1184
   -12.9882 -12.8760 -12.7205 -12.6733 -12.6010 -12.5195 -12.4486 -12.3695
   -12.3237 -12.1950 -12.1360 -12.0954 -11.7857 -11.7637 -11.6427 -11.5845
   -11.4392 -11.3759 -11.3126 -11.1703 -10.3368 -10.2120 -10.0432  -9.9153
    -9.8695  -9.7528  -9.5121  -9.4019  -9.2534  -9.1773  -9.1164  -9.0862
    -9.0132  -8.9700  -8.8928  -8.8387  -8.7552  -8.7053  -8.6427  -8.6072
    -8.5220  -8.4352  -8.3264  -8.2002  -7.7895  -7.6025  -7.4054  -7.2404
    -7.0582  -6.9546  -6.7663  -6.6624  -5.9245  -5.8114  -5.7260  -5.6053
    -5.5747  -5.5448  -5.4532  -5.4132  -5.3554  -5.2858  -5.2551  -5.2175
    -5.1919  -5.1389  -5.0536  -5.0429  -4.9715  -4.9234  -4.8821  -4.8538
    -4.8114  -4.7603  -4.7055  -4.6744  -4.6514  -4.5893  -4.5719  -4.5281
    -4.4948  -4.4428  -4.4157  -4.3705  -4.2985  -4.2543  -4.2223  -4.1846
    -4.1231  -4.0635  -4.0242  -3.9750  -3.9341  -3.9073  -3.8275  -3.7845
    -3.7376  -3.6869  -3.6217  -3.5634  -3.5053  -3.4821  -3.4504  -3.4283
    -3.3201  -3.2524  -3.2142  -3.1400  -3.1086  -3.0336  -2.8932  -2.8604
    -2.8072  -2.7419  -2.6960  -2.6635  -2.5871  -2.5632  -2.5257  -2.4769
    -2.4176  -2.3405  -2.2425  -2.1414  -2.0813  -1.9586  -1.9266  -1.8223
    -1.7917  -1.7281  -1.7135  -1.6567  -1.6291  -1.5847  -1.5179  -1.4552
    -1.4208  -1.3571  -1.3523  -1.3191  -1.2089  -1.1609  -1.1473  -1.1093
    -1.0676  -1.0402  -1.0053  -0.9857  -0.9484  -0.8935  -0.8125  -0.7889
    -0.7636  -0.7299  -0.6510  -0.6012  -0.4643  -0.3606  -0.2950  -0.2678
    -0.1119  -0.0357   0.2946   0.5759   1.1543   1.2618   1.3119   1.3580
     1.3914   1.4281   1.4752   1.5866   1.7194   1.8523   1.9018   1.9746
     2.0078   2.0656   2.1109   2.1793   2.2028   2.2465   2.2858   2.3195
     2.3821   2.3994   2.4370   2.4985   2.5662   2.5888   2.6117   2.6462
     2.7095   2.7475   2.7911   2.8216   2.8658   2.8744   2.9141   2.9719

          k = 0.3750 0.2462 0.0000 (163323 PWs)   bands (ev):

   -15.0845 -14.9779 -14.8622 -14.6417 -14.5194 -14.3098 -14.2832 -14.1481
   -14.0719 -13.9790 -13.6946 -13.6381 -13.5500 -13.4925 -13.3465 -13.1797
   -12.9480 -12.7993 -12.7248 -12.6717 -12.6165 -12.5482 -12.4755 -12.3587
   -12.3061 -12.1813 -12.1093 -12.0589 -11.7893 -11.7804 -11.6127 -11.5709
   -11.4622 -11.4064 -11.3131 -11.1718 -10.3301 -10.2112 -10.0483  -9.9208
    -9.8179  -9.7395  -9.5792  -9.4334  -9.2389  -9.1827  -9.1106  -9.0541
    -9.0185  -8.9916  -8.8952  -8.8247  -8.7979  -8.6868  -8.6269  -8.5822
    -8.5035  -8.3442  -8.1807  -8.0596  -8.0325  -7.8734  -7.6720  -7.5089
    -6.7076  -6.6388  -6.5007  -6.4033  -6.0218  -5.9716  -5.9311  -5.8179
    -5.5787  -5.5225  -5.4462  -5.3961  -5.3220  -5.2757  -5.2301  -5.2116
    -5.1530  -5.1320  -5.1100  -5.0599  -4.9972  -4.9613  -4.9228  -4.8705
    -4.8185  -4.7702  -4.7431  -4.7017  -4.6698  -4.6309  -4.5538  -4.5310
    -4.5073  -4.4753  -4.4277  -4.3613  -4.3153  -4.2570  -4.2201  -4.1779
    -4.1041  -4.0447  -3.9784  -3.9501  -3.8974  -3.8243  -3.7757  -3.7504
    -3.6234  -3.5801  -3.5559  -3.4833  -3.4579  -3.4195  -3.3443  -3.2938
    -3.2125  -3.1822  -3.1229  -3.0839  -3.0527  -3.0330  -2.9788  -2.9564
    -2.9026  -2.8921  -2.8335  -2.7736  -2.7261  -2.6887  -2.6372  -2.6029
    -2.5698  -2.4898  -2.4095  -2.3444  -2.2642  -2.1298  -1.9164  -1.8186
    -1.7770  -1.7271  -1.5927  -1.5517  -1.5035  -1.4384  -1.4107  -1.3719
    -1.2826  -1.2494  -1.2102  -1.1782  -1.1407  -1.1360  -1.1112  -1.0577
    -1.0439  -0.9620  -0.9488  -0.9039  -0.8882  -0.8693  -0.8045  -0.7706
    -0.7564  -0.7270  -0.6119  -0.4934  -0.4396  -0.4119  -0.3858  -0.3394
    -0.2938  -0.2078   0.1351   0.3017   1.2217   1.2772   1.3546   1.4066
     1.4874   1.5074   1.5492   1.5926   1.7904   1.8053   1.8358   1.8889
     1.9446   2.0133   2.0344   2.1218   2.1608   2.1899   2.2668   2.2860
     2.3714   2.4019   2.4305   2.4850   2.5229   2.5629   2.6004   2.6360
     2.6773   2.7261   2.7599   2.7980   2.8296   2.8935   2.9277   2.9663

          k = 0.3750-0.3694 0.0000 (163308 PWs)   bands (ev):

   -15.0652 -14.9685 -14.9008 -14.6607 -14.5010 -14.3352 -14.2981 -14.1666
   -13.9380 -13.8942 -13.8361 -13.6532 -13.5245 -13.4377 -13.3880 -13.2633
   -12.9373 -12.7849 -12.7200 -12.6541 -12.5947 -12.5480 -12.5097 -12.3579
   -12.3113 -12.2035 -12.0925 -12.0151 -11.8093 -11.7661 -11.5873 -11.5648
   -11.4885 -11.4315 -11.3084 -11.1666 -10.3290 -10.2160 -10.0537  -9.9295
    -9.7776  -9.7041  -9.6324  -9.4527  -9.2293  -9.1887  -9.1106  -9.0562
    -9.0367  -8.9765  -8.8850  -8.8439  -8.7971  -8.6896  -8.6258  -8.5864
    -8.3714  -8.2862  -8.1646  -8.1386  -7.9773  -7.9122  -7.7895  -7.7395
    -6.4345  -6.4010  -6.3210  -6.2518  -6.2101  -6.1639  -6.0633  -5.9963
    -5.5789  -5.4760  -5.4546  -5.3494  -5.3294  -5.2725  -5.2407  -5.2095
    -5.1646  -5.1313  -5.0995  -5.0346  -5.0165  -4.9847  -4.9342  -4.8746
    -4.8519  -4.7838  -4.7358  -4.7113  -4.6859  -4.6030  -4.5791  -4.5642
    -4.5277  -4.4805  -4.4400  -4.3861  -4.2981  -4.2415  -4.2125  -4.1452
    -4.1133  -4.0635  -3.9603  -3.9197  -3.8801  -3.8283  -3.7861  -3.7511
    -3.5532  -3.4920  -3.4194  -3.3702  -3.3286  -3.3188  -3.2749  -3.2577
    -3.2068  -3.1923  -3.1580  -3.1279  -3.0751  -3.0344  -3.0023  -2.9664
    -2.9282  -2.8984  -2.8741  -2.8328  -2.8032  -2.7624  -2.7405  -2.7013
    -2.6555  -2.6044  -2.5630  -2.4660  -2.1289  -2.1123  -1.9815  -1.9348
    -1.8215  -1.7732  -1.5022  -1.4622  -1.4365  -1.3686  -1.3356  -1.2860
    -1.2609  -1.2288  -1.1846  -1.1539  -1.1276  -1.0577  -1.0179  -0.9960
    -0.9604  -0.9411  -0.9245  -0.8825  -0.8546  -0.8346  -0.7943  -0.7480
    -0.7193  -0.6792  -0.6304  -0.5812  -0.5543  -0.5291  -0.4705  -0.4298
    -0.1498  -0.0990  -0.0052   0.0743   1.2037   1.2530   1.4189   1.4654
     1.4913   1.5427   1.6045   1.6731   1.7046   1.7651   1.8113   1.8883
     1.9027   1.9657   2.0157   2.0643   2.1390   2.1817   2.2398   2.3077
     2.3590   2.3915   2.4415   2.4679   2.5230   2.5934   2.6091   2.6596
     2.6833   2.7073   2.7469   2.7713   2.8385   2.8741   2.9605   2.9766

          k =-0.5000 0.0000 0.0000 (163354 PWs)   bands (ev):

   -15.0966 -14.9775 -14.7160 -14.6465 -14.5326 -14.3671 -14.2663 -14.2228
   -14.0833 -13.9904 -13.9809 -13.7794 -13.5000 -13.2609 -13.1313 -13.0938
   -13.0021 -12.9878 -12.7128 -12.6226 -12.5473 -12.4891 -12.4003 -12.3210
   -12.1959 -12.1354 -12.0843 -12.0235 -11.8762 -11.8029 -11.6955 -11.6057
   -11.5004 -11.4863 -11.3884 -11.2519 -10.2003 -10.1298  -9.9229  -9.8895
    -9.8307  -9.6695  -9.5608  -9.4728  -9.3966  -9.3207  -9.2728  -9.1504
    -9.0888  -9.0129  -8.8752  -8.8534  -8.7955  -8.7496  -8.6404  -8.5990
    -8.5559  -8.4004  -8.3876  -8.2727  -7.5511  -7.3514  -7.3238  -7.2363
    -7.1230  -6.9759  -6.9310  -6.8427  -5.8396  -5.6170  -5.4450  -5.4154
    -5.3738  -5.3525  -5.3257  -5.2567  -5.2089  -5.1815  -5.1591  -5.1148
    -5.0781  -5.0335  -5.0089  -4.9865  -4.9455  -4.8941  -4.8663  -4.8093
    -4.7837  -4.7435  -4.7377  -4.6707  -4.6617  -4.6173  -4.5642  -4.5308
    -4.5089  -4.4985  -4.4269  -4.4032  -4.3546  -4.2840  -4.2679  -4.2160
    -4.2078  -4.1784  -4.1587  -4.0694  -4.0204  -3.9749  -3.9432  -3.9160
    -3.8537  -3.8037  -3.7505  -3.6992  -3.6662  -3.6542  -3.6190  -3.5634
    -3.5434  -3.4259  -3.4216  -3.3624  -3.1015  -3.0634  -2.9453  -2.8875
    -2.7917  -2.7529  -2.6781  -2.6471  -2.5583  -2.4583  -2.4563  -2.3821
    -2.2260  -2.1820  -2.1006  -2.0387  -2.0143  -1.9669  -1.9196  -1.8850
    -1.8053  -1.7331  -1.7194  -1.6709  -1.6322  -1.5674  -1.5641  -1.5394
    -1.4673  -1.4127  -1.3412  -1.2959  -1.2697  -1.2287  -1.1513  -1.1133
    -1.0784  -1.0263  -0.9874  -0.9322  -0.8975  -0.8760  -0.8100  -0.7757
    -0.7277  -0.6977  -0.6674  -0.6261  -0.5569  -0.4885  -0.4012  -0.3521
     0.0295   0.0783   0.5390   0.6265   1.0883   1.1934   1.2613   1.3207
     1.3682   1.4109   1.4500   1.5870   1.8884   1.9288   2.0595   2.0810
     2.0864   2.1810   2.2156   2.2312   2.2763   2.3122   2.3470   2.3870
     2.4249   2.4575   2.4967   2.5051   2.5417   2.6021   2.6166   2.6606
     2.7295   2.7494   2.7721   2.8440   2.8889   2.9122   2.9638   2.9852

          k =-0.5000 0.1231 0.0000 (163382 PWs)   bands (ev):

   -15.0861 -14.9710 -14.7621 -14.6269 -14.5487 -14.3861 -14.2550 -14.2072
   -14.0923 -14.0225 -13.8790 -13.7001 -13.5555 -13.3650 -13.1914 -13.1109
   -12.9954 -12.9031 -12.6935 -12.6244 -12.5322 -12.4945 -12.4092 -12.3312
   -12.1910 -12.1276 -12.0830 -12.0201 -11.8647 -11.8087 -11.6978 -11.6205
   -11.5001 -11.4747 -11.3876 -11.2475 -10.2042 -10.1360  -9.9208  -9.8910
    -9.8372  -9.6693  -9.5593  -9.4701  -9.3904  -9.3169  -9.2721  -9.1567
    -9.0853  -9.0159  -8.9083  -8.8565  -8.7891  -8.7072  -8.6634  -8.6017
    -8.5255  -8.4271  -8.3194  -8.1797  -7.7775  -7.6056  -7.3873  -7.2209
    -7.0426  -6.9189  -6.7330  -6.5946  -5.8752  -5.6947  -5.6030  -5.5106
    -5.4003  -5.3651  -5.2938  -5.2421  -5.2057  -5.1741  -5.1478  -5.1117
    -5.0615  -5.0154  -4.9873  -4.9612  -4.9233  -4.9072  -4.8407  -4.8180
    -4.7720  -4.7422  -4.7074  -4.6817  -4.6482  -4.6329  -4.6033  -4.5569
    -4.5311  -4.4867  -4.4350  -4.4060  -4.3783  -4.3349  -4.2920  -4.2505
    -4.2020  -4.1472  -4.1386  -4.0929  -4.0217  -4.0123  -3.9585  -3.8921
    -3.8320  -3.7827  -3.7217  -3.6552  -3.6373  -3.5622  -3.5269  -3.4855
    -3.4730  -3.3632  -3.3281  -3.2860  -3.1568  -3.0907  -2.9698  -2.9012
    -2.8592  -2.7566  -2.7350  -2.6604  -2.5911  -2.5728  -2.5238  -2.4917
    -2.3928  -2.3308  -2.2784  -2.1619  -2.0521  -1.9315  -1.8990  -1.8715
    -1.7844  -1.7407  -1.6628  -1.6316  -1.5600  -1.5033  -1.4493  -1.4290
    -1.3839  -1.3398  -1.3042  -1.2781  -1.2189  -1.2075  -1.1718  -1.0683
    -1.0317  -1.0051  -0.9773  -0.9378  -0.8785  -0.8261  -0.8075  -0.7372
    -0.7166  -0.6894  -0.6414  -0.5996  -0.5690  -0.4705  -0.4161  -0.3698
    -0.0935  -0.0316   0.4503   0.5017   1.1658   1.2337   1.2946   1.3639
     1.4007   1.4390   1.4562   1.5853   1.8258   1.9089   1.9441   1.9967
     2.0733   2.1030   2.2078   2.2616   2.2719   2.3303   2.3511   2.3904
     2.4279   2.4437   2.4883   2.5055   2.5184   2.5922   2.6152   2.6649
     2.6996   2.7584   2.7794   2.8466   2.8937   2.9089   2.9239   3.0052

          k =-0.5000 0.2462 0.0000 (163344 PWs)   bands (ev):

   -15.0594 -14.9560 -14.8363 -14.6165 -14.5681 -14.3784 -14.3361 -14.1910
   -14.0262 -13.9508 -13.7157 -13.6861 -13.5660 -13.5120 -13.3427 -13.2114
   -12.9374 -12.7922 -12.6688 -12.6234 -12.5253 -12.4959 -12.4212 -12.3549
   -12.1817 -12.1131 -12.0799 -12.0168 -11.8381 -11.8099 -11.7126 -11.6483
   -11.4969 -11.4563 -11.3861 -11.2391 -10.2119 -10.1477  -9.9190  -9.8919
    -9.8508  -9.6680  -9.5564  -9.4649  -9.3777  -9.3139  -9.2650  -9.1702
    -9.0762  -9.0194  -8.9517  -8.8602  -8.8030  -8.7028  -8.6289  -8.5883
    -8.4934  -8.3381  -8.1718  -8.0516  -8.0096  -7.8716  -7.6558  -7.4944
    -6.6897  -6.5850  -6.4613  -6.3120  -5.9859  -5.9071  -5.8795  -5.7584
    -5.3972  -5.3501  -5.2586  -5.2133  -5.1855  -5.1604  -5.1159  -5.0869
    -5.0723  -5.0287  -4.9875  -4.9631  -4.9317  -4.8829  -4.8438  -4.7918
    -4.7663  -4.7592  -4.7314  -4.6935  -4.6270  -4.6120  -4.5858  -4.5561
    -4.5368  -4.4950  -4.4619  -4.4297  -4.3953  -4.3567  -4.3302  -4.2918
    -4.2515  -4.1904  -4.1726  -4.1305  -4.0823  -4.0403  -3.9454  -3.8855
    -3.7509  -3.6241  -3.5609  -3.5147  -3.4671  -3.4457  -3.3773  -3.3525
    -3.2839  -3.2498  -3.2142  -3.1368  -3.1146  -3.0970  -3.0236  -2.9927
    -2.9581  -2.9269  -2.8646  -2.8266  -2.7858  -2.7375  -2.6812  -2.6214
    -2.6091  -2.5199  -2.4151  -2.3417  -2.2877  -2.1302  -1.8442  -1.7991
    -1.7340  -1.6688  -1.5633  -1.5173  -1.4750  -1.4416  -1.3938  -1.2920
    -1.2435  -1.1958  -1.1678  -1.1476  -1.1074  -1.0795  -1.0647  -1.0112
    -1.0012  -0.9735  -0.9368  -0.9151  -0.8740  -0.8291  -0.8046  -0.7452
    -0.7262  -0.6876  -0.6332  -0.5983  -0.4904  -0.4658  -0.3876  -0.3488
    -0.3239  -0.1948   0.2404   0.2619   1.2114   1.2623   1.3686   1.4095
     1.4810   1.5514   1.5672   1.6039   1.6946   1.7498   1.8555   1.9010
     1.9828   2.0183   2.0615   2.1494   2.2080   2.2783   2.3051   2.3587
     2.3999   2.4493   2.4783   2.5146   2.5426   2.6371   2.6612   2.7088
     2.7437   2.7662   2.8083   2.8621   2.8947   2.9405   2.9616   2.9987

          k =-0.5000-0.3694 0.0000 (163276 PWs)   bands (ev):

   -15.0407 -14.9460 -14.8752 -14.6319 -14.5522 -14.3919 -14.3485 -14.2247
   -13.9098 -13.8701 -13.8166 -13.6236 -13.5671 -13.4856 -13.4362 -13.3123
   -12.9103 -12.7364 -12.6710 -12.6147 -12.5324 -12.5013 -12.4136 -12.3732
   -12.1772 -12.1064 -12.0779 -12.0167 -11.8363 -11.7776 -11.7424 -11.6591
   -11.4952 -11.4477 -11.3855 -11.2350 -10.2156 -10.1534  -9.9196  -9.8908
    -9.8578  -9.6672  -9.5549  -9.4624  -9.3707  -9.3156  -9.2577  -9.1781
    -9.0705  -9.0170  -8.9741  -8.8598  -8.8141  -8.7112  -8.6180  -8.5954
    -8.3698  -8.2743  -8.1597  -8.1359  -7.9635  -7.8976  -7.7636  -7.7189
    -6.4014  -6.3489  -6.2870  -6.2117  -6.1363  -6.0969  -6.0050  -5.9583
    -5.3949  -5.3236  -5.2812  -5.2157  -5.1610  -5.1296  -5.1097  -5.0754
    -5.0557  -5.0421  -4.9933  -4.9540  -4.9300  -4.9131  -4.8564  -4.7978
    -4.7887  -4.7597  -4.7285  -4.7276  -4.5947  -4.5927  -4.5690  -4.5640
    -4.5162  -4.4851  -4.4619  -4.4120  -4.3941  -4.3681  -4.3424  -4.3292
    -4.3056  -4.2324  -4.1835  -4.1715  -4.0988  -4.0014  -3.9926  -3.9154
    -3.5763  -3.5552  -3.4414  -3.3769  -3.3650  -3.3506  -3.2905  -3.2641
    -3.2435  -3.2146  -3.1805  -3.1293  -3.0973  -3.0810  -3.0388  -3.0133
    -2.9846  -2.9660  -2.9242  -2.8917  -2.8721  -2.8327  -2.7765  -2.7728
    -2.7395  -2.6575  -2.6351  -2.5013  -2.1087  -2.0950  -1.9758  -1.9151
    -1.6781  -1.6309  -1.5751  -1.5348  -1.3548  -1.3028  -1.2717  -1.2298
    -1.2179  -1.1662  -1.1234  -1.0833  -1.0770  -1.0289  -1.0087  -0.9648
    -0.9453  -0.9357  -0.9140  -0.8632  -0.8490  -0.8285  -0.7809  -0.7613
    -0.7540  -0.6946  -0.6523  -0.6199  -0.5732  -0.5479  -0.4878  -0.4285
    -0.1124  -0.0609   0.0037   0.0756   1.2262   1.3114   1.3743   1.4212
     1.4812   1.5458   1.5877   1.6751   1.7294   1.7972   1.8270   1.8401
     1.8811   1.9239   1.9772   1.9882   2.1613   2.2688   2.2923   2.3708
     2.4128   2.4353   2.4584   2.5409   2.5719   2.6133   2.6720   2.7091
     2.7689   2.7952   2.8083   2.8653   2.8925   2.9463   2.9883   3.0126

          k =-0.1250 0.1231 0.0000 (163331 PWs)   bands (ev):

   -15.2038 -15.0773 -14.8531 -14.6465 -14.4499 -14.3152 -14.1324 -13.9773
   -13.8540 -13.7110 -13.6635 -13.5408 -13.5013 -13.4216 -13.3283 -13.3048
   -13.1192 -13.0603 -12.9764 -12.8942 -12.7615 -12.7239 -12.5603 -12.4340
   -12.3905 -12.3197 -12.2635 -12.2076 -11.7004 -11.6771 -11.6064 -11.4683
   -11.3803 -11.2785 -10.9400 -10.7432 -10.6369 -10.5245 -10.0452  -9.9028
    -9.7776  -9.6659  -9.5252  -9.4195  -9.3095  -9.1538  -8.9881  -8.9266
    -8.8286  -8.7241  -8.6420  -8.6295  -8.5721  -8.5298  -8.4444  -8.3990
    -8.3009  -8.2021  -7.9676  -7.8878  -7.8164  -7.7075  -7.6548  -7.4125
    -7.2797  -7.2501  -7.0841  -6.8375  -6.6657  -6.6064  -6.0776  -6.0139
    -5.9419  -5.8794  -5.8047  -5.7586  -5.7145  -5.6576  -5.6086  -5.5591
    -5.4711  -5.4226  -5.3794  -5.2882  -5.2249  -5.2098  -5.1512  -5.1000
    -5.0541  -4.9956  -4.9420  -4.8481  -4.7154  -4.6760  -4.5836  -4.4964
    -4.4454  -4.3381  -4.2646  -4.1358  -3.9916  -3.9160  -3.7574  -3.7244
    -3.6219  -3.5985  -3.5471  -3.5019  -3.4800  -3.4624  -3.4007  -3.3805
    -3.3081  -3.2741  -3.2229  -3.1616  -3.1195  -3.0821  -3.0251  -2.9858
    -2.9712  -2.9055  -2.8502  -2.8183  -2.8021  -2.7724  -2.7444  -2.6974
    -2.6652  -2.6420  -2.5983  -2.5567  -2.4909  -2.4315  -2.4128  -2.3683
    -2.2945  -2.2246  -2.1896  -2.1586  -2.1212  -2.0613  -2.0075  -1.9813
    -1.9462  -1.8956  -1.8301  -1.7906  -1.7590  -1.6912  -1.6663  -1.6146
    -1.5505  -1.4936  -1.4776  -1.4256  -1.3699  -1.3279  -1.2925  -1.2142
    -1.1771  -1.0973  -1.0343  -0.9907  -0.9743  -0.8526  -0.8361  -0.7957
    -0.7317  -0.6742  -0.6480  -0.5613  -0.4281  -0.3379  -0.2367  -0.1542
    -0.1029  -0.0623   0.0172   0.6107   0.9989   1.0608   1.1939   1.2494
     1.2606   1.3690   1.4021   1.4181   1.4705   1.5977   1.6139   1.6569
     1.7351   1.8072   1.8438   1.8969   1.9435   1.9675   2.0245   2.0543
     2.0972   2.1424   2.2073   2.2520   2.3265   2.3572   2.3894   2.4390
     2.5019   2.5223   2.5491   2.6444   2.6893   2.7242   2.7762   2.8062

          k =-0.1250 0.2462 0.0000 (163316 PWs)   bands (ev):

   -15.1736 -15.0594 -14.9420 -14.7241 -14.3312 -14.1876 -14.0896 -13.9709
   -13.9189 -13.8161 -13.7413 -13.6063 -13.5014 -13.4103 -13.3167 -13.2546
   -13.0640 -13.0214 -12.9370 -12.8950 -12.7558 -12.7152 -12.6064 -12.4668
   -12.4093 -12.3344 -12.2817 -12.2089 -11.6930 -11.6708 -11.5779 -11.4593
   -11.3357 -11.2537 -11.0137 -10.8641 -10.5336 -10.3971 -10.1603 -10.0000
    -9.7341  -9.6375  -9.5344  -9.3908  -9.2775  -9.1446  -8.9317  -8.8841
    -8.8371  -8.7412  -8.6889  -8.5915  -8.5790  -8.5212  -8.4270  -8.3625
    -8.2440  -8.1618  -8.0627  -7.9987  -7.9605  -7.8254  -7.7147  -7.6675
    -7.0935  -7.0648  -6.8816  -6.7826  -6.6412  -6.4304  -6.1224  -5.9980
    -5.9429  -5.8809  -5.7930  -5.7510  -5.6997  -5.6558  -5.6191  -5.5924
    -5.5505  -5.5139  -5.4426  -5.3836  -5.3116  -5.2897  -5.2370  -5.1334
    -5.0410  -5.0206  -4.9293  -4.7845  -4.6749  -4.6238  -4.5628  -4.4942
    -4.4641  -4.3500  -4.2248  -4.0796  -3.8245  -3.7732  -3.7427  -3.6825
    -3.6497  -3.5994  -3.5200  -3.4702  -3.4252  -3.3921  -3.3615  -3.3315
    -3.2918  -3.2561  -3.2027  -3.1770  -3.1264  -3.0810  -3.0546  -3.0123
    -2.9831  -2.9545  -2.9277  -2.8920  -2.8408  -2.8255  -2.7934  -2.7388
    -2.7176  -2.6565  -2.6392  -2.5892  -2.5776  -2.5274  -2.4469  -2.4178
    -2.3548  -2.3008  -2.2408  -2.1588  -2.1167  -2.0904  -2.0176  -1.9745
    -1.9320  -1.8793  -1.8259  -1.8041  -1.7414  -1.6324  -1.6035  -1.5650
    -1.5180  -1.4634  -1.4083  -1.3221  -1.3078  -1.2203  -1.1786  -1.1525
    -1.0658  -0.9985  -0.9817  -0.9137  -0.8910  -0.8282  -0.8000  -0.7651
    -0.7249  -0.6940  -0.5832  -0.5727  -0.5044  -0.4673  -0.4254  -0.3692
    -0.2845  -0.2265  -0.1570   0.3174   1.0865   1.1267   1.2675   1.3178
     1.3581   1.4302   1.4756   1.5243   1.5797   1.6496   1.6881   1.7420
     1.8200   1.8314   1.8929   1.9406   1.9682   2.0074   2.0422   2.0760
     2.1075   2.1394   2.1767   2.2509   2.2896   2.3541   2.3858   2.4355
     2.4525   2.5170   2.5520   2.5903   2.6360   2.6909   2.7157   2.7656

          k =-0.2500 0.1231 0.0000 (163343 PWs)   bands (ev):

   -15.1643 -15.0409 -14.8174 -14.6071 -14.4859 -14.3372 -14.2137 -14.1392
   -13.9777 -13.8254 -13.7152 -13.6209 -13.5402 -13.4256 -13.2287 -13.1475
   -13.0811 -13.0033 -12.8348 -12.7227 -12.6498 -12.6205 -12.5225 -12.4282
   -12.3761 -12.2965 -12.2587 -12.2102 -11.7837 -11.6309 -11.5713 -11.5100
   -11.3834 -11.3347 -11.0541 -10.9187 -10.5982 -10.4028 -10.1438  -9.9827
    -9.8250  -9.6998  -9.4385  -9.3664  -9.2207  -9.0626  -9.0325  -8.9728
    -8.9137  -8.8375  -8.7777  -8.7174  -8.6599  -8.5902  -8.5669  -8.5004
    -8.4497  -8.3790  -8.3058  -8.1606  -7.8141  -7.6905  -7.4819  -7.3531
    -7.1067  -7.0293  -6.8993  -6.6927  -6.2602  -6.1590  -5.9817  -5.8668
    -5.7902  -5.7225  -5.6518  -5.6036  -5.5789  -5.5464  -5.4426  -5.4060
    -5.3364  -5.2776  -5.2481  -5.1929  -5.1370  -5.0610  -5.0304  -5.0056
    -4.9511  -4.8985  -4.8312  -4.7774  -4.6540  -4.6186  -4.5585  -4.4966
    -4.4436  -4.3576  -4.2767  -4.2437  -4.1197  -4.0581  -3.9736  -3.9532
    -3.8839  -3.8253  -3.7753  -3.7505  -3.7256  -3.6633  -3.6542  -3.5635
    -3.5259  -3.4783  -3.4378  -3.4208  -3.3406  -3.2298  -3.1797  -3.1559
    -3.1194  -3.0365  -2.9977  -2.9687  -2.8941  -2.8452  -2.8115  -2.7696
    -2.7284  -2.7021  -2.6531  -2.6279  -2.5623  -2.5144  -2.4828  -2.4465
    -2.3527  -2.3081  -2.2151  -2.1384  -2.0608  -2.0466  -1.9932  -1.9365
    -1.8930  -1.8118  -1.7791  -1.7141  -1.6730  -1.6185  -1.5605  -1.5353
    -1.4748  -1.4286  -1.4095  -1.3705  -1.3145  -1.2663  -1.2046  -1.1805
    -1.1233  -1.0718  -1.0326  -0.9808  -0.9682  -0.9028  -0.8674  -0.7999
    -0.7832  -0.7255  -0.6731  -0.5581  -0.3452  -0.3019  -0.2122  -0.1777
    -0.1267  -0.0266   0.0578   0.6301   1.0983   1.1839   1.2701   1.3161
     1.3745   1.4556   1.4678   1.5157   1.6180   1.6836   1.8038   1.8093
     1.8845   1.9141   2.0030   2.0103   2.0783   2.1028   2.1676   2.1868
     2.2451   2.2828   2.3167   2.3982   2.4341   2.4535   2.4805   2.5699
     2.5919   2.6558   2.6895   2.7183   2.7473   2.7985   2.8649   2.9063

          k =-0.2500 0.2462 0.0000 (163340 PWs)   bands (ev):

   -15.1350 -15.0239 -14.9038 -14.6813 -14.4178 -14.2484 -14.1862 -14.0856
   -13.9825 -13.8941 -13.7894 -13.6212 -13.5557 -13.3807 -13.2587 -13.1622
   -13.0419 -12.9239 -12.8534 -12.7562 -12.7020 -12.6772 -12.5690 -12.4526
   -12.3501 -12.2577 -12.1873 -12.1261 -11.8069 -11.6891 -11.5779 -11.5315
   -11.3538 -11.2949 -11.0801 -10.9458 -10.5423 -10.3729 -10.2313 -10.0686
    -9.6975  -9.5965  -9.4382  -9.3578  -9.2856  -9.1246  -9.1156  -9.0616
    -8.8797  -8.7893  -8.7441  -8.6922  -8.6246  -8.5863  -8.5287  -8.4595
    -8.3921  -8.3171  -8.2037  -8.1070  -8.0183  -7.9373  -7.7235  -7.6208
    -6.7943  -6.7388  -6.6632  -6.4493  -6.3320  -6.2796  -6.0631  -5.9269
    -5.7984  -5.7405  -5.6495  -5.6152  -5.5576  -5.5102  -5.4828  -5.4120
    -5.3740  -5.3319  -5.2921  -5.2296  -5.1791  -5.1257  -5.0837  -5.0513
    -5.0088  -4.9297  -4.8458  -4.7648  -4.6316  -4.5773  -4.5336  -4.4970
    -4.4632  -4.3612  -4.2623  -4.2391  -4.1061  -4.0115  -3.9846  -3.8636
    -3.7887  -3.7831  -3.7575  -3.6905  -3.6354  -3.5968  -3.5516  -3.4998
    -3.4596  -3.4237  -3.3723  -3.2957  -3.2827  -3.2668  -3.2277  -3.1633
    -3.1107  -3.0914  -3.0354  -2.9889  -2.9450  -2.9026  -2.8948  -2.8458
    -2.7928  -2.7707  -2.7025  -2.6550  -2.6404  -2.5991  -2.5425  -2.5094
    -2.4325  -2.3673  -2.3465  -2.2977  -2.2342  -2.0900  -2.0108  -1.9836
    -1.8851  -1.8038  -1.7407  -1.6633  -1.5836  -1.5313  -1.4878  -1.4485
    -1.4195  -1.3810  -1.2945  -1.2577  -1.2134  -1.1822  -1.1210  -1.0854
    -1.0482  -0.9917  -0.9710  -0.9550  -0.9031  -0.8563  -0.8259  -0.7634
    -0.7316  -0.7017  -0.5892  -0.5150  -0.4731  -0.4130  -0.3737  -0.3097
    -0.2923  -0.2099  -0.0450   0.3331   1.2108   1.2307   1.3130   1.3800
     1.4311   1.5015   1.5237   1.5981   1.6988   1.7416   1.7894   1.8561
     1.9013   1.9181   2.0029   2.0284   2.0729   2.1234   2.1709   2.2009
     2.2621   2.2811   2.3193   2.3590   2.3959   2.4265   2.4662   2.5126
     2.5330   2.5853   2.6254   2.6692   2.7181   2.7599   2.8207   2.8488

          k =-0.3750 0.1231 0.0000 (163358 PWs)   bands (ev):

   -15.1134 -14.9951 -14.7761 -14.5839 -14.5572 -14.3776 -14.2519 -14.1937
   -14.0594 -13.9612 -13.8326 -13.6541 -13.5848 -13.3952 -13.1653 -13.0851
   -13.0321 -12.9644 -12.6930 -12.6305 -12.5507 -12.5173 -12.4680 -12.3934
   -12.3282 -12.2718 -12.1301 -12.0398 -11.8143 -11.7017 -11.6612 -11.5924
   -11.4539 -11.3874 -11.3021 -11.1571 -10.3420 -10.2209 -10.0521  -9.9380
    -9.8390  -9.7280  -9.5154  -9.4016  -9.2441  -9.1937  -9.1394  -9.0996
    -9.0059  -8.9459  -8.8957  -8.8571  -8.7496  -8.6981  -8.6383  -8.5937
    -8.5190  -8.4341  -8.3296  -8.1967  -7.7910  -7.6284  -7.4044  -7.2646
    -7.0594  -6.9337  -6.7609  -6.6154  -5.9070  -5.8593  -5.7636  -5.6558
    -5.5537  -5.5346  -5.4524  -5.3971  -5.3550  -5.3179  -5.2624  -5.1953
    -5.1567  -5.1136  -5.0531  -5.0056  -4.9453  -4.9387  -4.8751  -4.8427
    -4.8377  -4.7687  -4.7303  -4.6763  -4.6428  -4.5886  -4.5739  -4.5454
    -4.5106  -4.4483  -4.3861  -4.3466  -4.3189  -4.2871  -4.2306  -4.1805
    -4.1227  -4.0731  -4.0444  -3.9823  -3.9236  -3.8809  -3.8229  -3.7804
    -3.7467  -3.6322  -3.6066  -3.5790  -3.5440  -3.5157  -3.4525  -3.3448
    -3.3338  -3.2766  -3.1977  -3.1332  -3.1185  -2.9989  -2.9307  -2.8321
    -2.7992  -2.7670  -2.7097  -2.6785  -2.6226  -2.5736  -2.4943  -2.4542
    -2.3967  -2.3802  -2.2444  -2.1646  -2.0463  -1.9817  -1.9095  -1.8633
    -1.8030  -1.7541  -1.7067  -1.6673  -1.6024  -1.5523  -1.4865  -1.4544
    -1.4000  -1.3475  -1.3406  -1.3006  -1.2312  -1.1824  -1.1368  -1.0958
    -1.0913  -1.0642  -0.9873  -0.9748  -0.8946  -0.8822  -0.8562  -0.7805
    -0.7744  -0.7395  -0.6589  -0.5697  -0.4662  -0.3958  -0.3108  -0.2779
    -0.1119  -0.0321   0.2820   0.5962   1.1431   1.2418   1.3095   1.3740
     1.3919   1.4081   1.4675   1.6320   1.6808   1.8377   1.8644   1.9692
     2.0053   2.1045   2.1348   2.2006   2.2242   2.2595   2.2987   2.3288
     2.3905   2.4157   2.4553   2.5207   2.5263   2.5706   2.6219   2.6421
     2.6783   2.7390   2.7903   2.8190   2.8315   2.8803   2.9235   2.9523

          k =-0.3750 0.2462 0.0000 (163323 PWs)   bands (ev):

   -15.0857 -14.9795 -14.8570 -14.6279 -14.5316 -14.3436 -14.2907 -14.1505
   -14.0064 -13.9505 -13.7452 -13.6603 -13.5830 -13.4802 -13.2894 -13.1713
   -12.9769 -12.8570 -12.7027 -12.6302 -12.5752 -12.5321 -12.4988 -12.3674
   -12.3236 -12.2459 -12.1021 -12.0111 -11.8214 -11.7251 -11.6325 -11.5578
   -11.4864 -11.4176 -11.3028 -11.1595 -10.3349 -10.2210 -10.0547  -9.9380
    -9.7942  -9.7090  -9.5852  -9.4403  -9.2304  -9.1916  -9.1274  -9.0814
    -9.0154  -8.9657  -8.8895  -8.8610  -8.7695  -8.6792  -8.6328  -8.5759
    -8.4856  -8.3426  -8.1860  -8.0692  -8.0175  -7.8900  -7.6695  -7.5341
    -6.7113  -6.6097  -6.4986  -6.3327  -6.0491  -5.9945  -5.9720  -5.8478
    -5.5944  -5.4739  -5.4474  -5.3992  -5.3207  -5.2947  -5.2684  -5.1909
    -5.1570  -5.1062  -5.0822  -5.0380  -4.9891  -4.9487  -4.9166  -4.8808
    -4.8285  -4.7979  -4.7062  -4.6880  -4.6513  -4.6335  -4.5850  -4.5633
    -4.5074  -4.4615  -4.4163  -4.3955  -4.3120  -4.2709  -4.2453  -4.1608
    -4.0976  -4.0445  -4.0013  -3.9568  -3.8922  -3.8306  -3.7471  -3.7106
    -3.6190  -3.6119  -3.5510  -3.4804  -3.4624  -3.3825  -3.3492  -3.2818
    -3.2244  -3.1905  -3.1375  -3.0803  -3.0562  -3.0190  -2.9933  -2.9472
    -2.8998  -2.8568  -2.8387  -2.7938  -2.7546  -2.7018  -2.6501  -2.5960
    -2.5410  -2.5113  -2.4045  -2.3502  -2.2738  -2.1138  -1.8955  -1.8720
    -1.7636  -1.7244  -1.6159  -1.5465  -1.5064  -1.4703  -1.3702  -1.3145
    -1.2824  -1.2690  -1.2457  -1.1690  -1.1412  -1.1003  -1.0863  -1.0357
    -1.0233  -0.9748  -0.9570  -0.9151  -0.8967  -0.8359  -0.8145  -0.7881
    -0.7508  -0.6796  -0.6405  -0.5206  -0.4630  -0.4176  -0.3710  -0.3549
    -0.3232  -0.1973   0.1220   0.3206   1.2182   1.2538   1.3780   1.4139
     1.4415   1.4959   1.5426   1.6318   1.7079   1.8181   1.8358   1.8971
     1.9612   1.9937   2.0615   2.1382   2.1779   2.2374   2.2903   2.3290
     2.3891   2.4046   2.4242   2.4506   2.5239   2.5912   2.6189   2.6314
     2.6855   2.7190   2.7447   2.7868   2.8107   2.8496   2.9234   2.9673

     the Fermi energy is     0.8444 ev

!    total energy              =    -995.99561805 Ry
     estimated scf accuracy    <          5.2E-09 Ry
     smearing contrib. (-TS)   =      -0.00177433 Ry
     internal energy E=F+TS    =    -995.99384372 Ry

     The total energy is F=E-TS. E is the sum of the following terms:
     one-electron contribution =   -7918.45717133 Ry
     hartree contribution      =    4040.09301014 Ry
     xc contribution           =    -294.85347526 Ry
     ewald contribution        =    3177.22379273 Ry

     convergence has been achieved in  18 iterations

     Writing all to output data dir ./pwscf.save/ :
     XML data file, charge density, pseudopotentials, collected wavefunctions
 
     init_run     :      3.94s CPU      5.68s WALL (       1 calls)
     electrons    :     72.92s CPU    116.57s WALL (       1 calls)

     Called by init_run:
     wfcinit      :      1.30s CPU      2.47s WALL (       1 calls)
     potinit      :      2.32s CPU      2.46s WALL (       1 calls)
     hinit0       :      0.06s CPU      0.21s WALL (       1 calls)

     Called by electrons:
     c_bands      :     55.69s CPU     92.57s WALL (      19 calls)
     sum_band     :      7.04s CPU     12.54s WALL (      19 calls)
     v_of_rho     :     12.18s CPU     13.39s WALL (      19 calls)
     mix_rho      :      0.24s CPU      0.34s WALL (      19 calls)
     vdW_kernel   :      1.30s CPU      1.31s WALL (       1 calls)

     Called by c_bands:
     init_us_2    :      0.90s CPU      1.01s WALL (     507 calls)
     cegterg      :     45.02s CPU     78.08s WALL (     247 calls)

     Called by *egterg:
     cdiaghg      :     10.52s CPU     11.31s WALL (    1550 calls)
                                       11.30s GPU  (    1550 calls)
     h_psi        :     29.41s CPU     62.06s WALL (    1576 calls)
                                       62.03s GPU  (    1576 calls)
     g_psi        :      0.01s CPU      0.21s WALL (    1316 calls)
                                        0.20s GPU  (    1316 calls)

     Called by h_psi:
     h_psi:calbec :      3.26s CPU      4.81s WALL (    1576 calls)
                                        4.80s GPU  (    1576 calls)
     vloc_psi     :     21.61s CPU     52.16s WALL (    1576 calls)
                                       52.15s GPU  (    1576 calls)
     add_vuspsi   :      2.53s CPU      4.93s WALL (    1576 calls)
                                        4.92s GPU  (    1576 calls)

     General routines
     calbec       :      3.26s CPU      4.79s WALL (    1576 calls)
     fft          :      3.80s CPU      4.66s WALL (    1141 calls)
                                        0.36s GPU  (     191 calls)
     ffts         :      0.01s CPU      0.02s WALL (      19 calls)
                                        0.02s GPU  (      19 calls)
     fftw         :     22.01s CPU     57.60s WALL (   23446 calls)
                                       57.43s GPU  (   23446 calls)
 
     Parallel routines
 
     PWSCF        :   1m17.99s CPU   2m11.52s WALL

 
   This run was terminated on:  13:40:31   1Jun2025            

=------------------------------------------------------------------------------=
   JOB DONE.
=------------------------------------------------------------------------------=
